# Region type : patch outlet
# Faces       : 180
# Area        : 1.927305e-05
# Scale factor: 1.000000e+00
# Time        	areaAverage(s)
1.2e-06       	0.000000e+00
2.64e-06      	0.000000e+00
4.368e-06     	0.000000e+00
6.4416e-06    	0.000000e+00
8.92992e-06   	0.000000e+00
1.19159e-05   	0.000000e+00
1.54991e-05   	0.000000e+00
1.97989e-05   	0.000000e+00
2.49587e-05   	0.000000e+00
3.11504e-05   	0.000000e+00
3.85805e-05   	0.000000e+00
4.74965e-05   	0.000000e+00
5.81958e-05   	0.000000e+00
7.1035e-05    	0.000000e+00
8.6442e-05    	0.000000e+00
0.00010493    	0.000000e+00
0.000127116   	0.000000e+00
0.00015374    	0.000000e+00
0.000185688   	0.000000e+00
0.000224025   	0.000000e+00
0.00027003    	0.000000e+00
0.000325236   	0.000000e+00
0.000391483   	0.000000e+00
0.00047098    	0.000000e+00
0.000566376   	0.000000e+00
0.00068085    	0.000000e+00
0.000818221   	0.000000e+00
0.000983063   	0.000000e+00
0.00118087    	0.000000e+00
0.00141824    	0.000000e+00
0.0017031     	0.000000e+00
0.00204491    	5.018621e-310
0.00245508    	-2.013298e-300
0.0029473     	6.709545e-289
0.00353797    	5.733319e-277
0.00424679    	6.312775e-267
0.00509742    	-4.278356e-255
0.00611825    	8.246024e-243
0.00734314    	-5.233485e-233
0.00881286    	4.333803e-221
0.0105765     	7.516600e-210
0.0126925     	-6.033139e-199
0.0152319     	-3.876138e-188
0.0182788     	1.889954e-176
0.0219337     	-5.931959e-165
0.0263197     	1.360221e-154
0.0315829     	9.574973e-144
0.037896      	-1.069083e-133
0.0454717     	7.799008e-123
0.0545626     	-4.737126e-112
0.0654797     	-1.937247e-101
0.0785686     	5.761755e-92
0.094292      	1.249670e-81
0.11316       	9.196900e-73
0.135784      	1.190069e-64
0.162511      	1.448617e-57
0.19352       	1.168888e-51
0.228862      	1.015372e-46
0.268622      	8.694089e-43
0.313257      	2.159396e-39
0.361574      	5.150050e-37
0.410919      	2.567772e-36
0.461349      	-9.909050e-36
0.511778      	-5.430817e-34
0.562208      	-3.306407e-33
0.612637      	-1.013928e-32
0.663066      	-8.513799e-33
0.713496      	9.775690e-32
0.763925      	7.338978e-31
0.814355      	3.388637e-30
0.865399      	1.284829e-29
0.916444      	4.243577e-29
0.967488      	1.267184e-28
1.01853       	3.507022e-28
1.06958       	9.138260e-28
1.12062       	2.272197e-27
1.17167       	5.452324e-27
1.22271       	1.275650e-26
1.27375       	2.938667e-26
1.3248        	6.727609e-26
1.37584       	1.543225e-25
1.42689       	3.569573e-25
1.47793       	8.357921e-25
1.52898       	1.983384e-24
1.58002       	4.762516e-24
1.63032       	1.133365e-23
1.68061       	2.702342e-23
1.7309        	6.440558e-23
1.7812        	1.530210e-22
1.83149       	3.616052e-22
1.88178       	8.483710e-22
1.93208       	1.973300e-21
1.98237       	4.545767e-21
2.03267       	1.036397e-20
2.08296       	2.337738e-20
2.13325       	5.216713e-20
2.18355       	1.151946e-19
2.23384       	2.518686e-19
2.28413       	5.456934e-19
2.33443       	1.172819e-18
2.38472       	2.503044e-18
2.43502       	5.311003e-18
2.48531       	1.121240e-17
2.5356        	2.356663e-17
2.5859        	4.932282e-17
2.63619       	1.028218e-16
2.68649       	2.134039e-16
2.73678       	4.388351e-16
2.78707       	8.931343e-16
2.83737       	1.796240e-15
2.88766       	3.569864e-15
2.93795       	7.011269e-15
2.98825       	1.359942e-14
3.03854       	2.603618e-14
3.08884       	4.918126e-14
3.13913       	9.164642e-14
3.18942       	1.684888e-13
3.23972       	3.057174e-13
3.29001       	5.477904e-13
3.3403        	9.701803e-13
3.3906        	1.700431e-12
3.44089       	2.953898e-12
3.49119       	5.094959e-12
3.54148       	8.742595e-12
3.59177       	1.495550e-11
3.64207       	2.555374e-11
3.69236       	4.367980e-11
3.74266       	7.477165e-11
3.79295       	1.282322e-10
3.84324       	2.202507e-10
3.89354       	3.785203e-10
3.94383       	6.500072e-10
3.99412       	1.113529e-09
4.04442       	1.899756e-09
4.09471       	3.222663e-09
4.14501       	5.427919e-09
4.1953        	9.066395e-09
4.24559       	1.500401e-08
4.29589       	2.458316e-08
4.34618       	3.985652e-08
4.39647       	6.392012e-08
4.44677       	1.013785e-07
4.49706       	1.589904e-07
4.54736       	2.465472e-07
4.59765       	3.780612e-07
4.64794       	5.733191e-07
4.69824       	8.599708e-07
4.74853       	1.276105e-06
4.79882       	1.873710e-06
4.84912       	2.723011e-06
4.89941       	3.917419e-06
4.94971       	5.580465e-06
5             	7.873391e-06
5.05051       	1.102065e-05
5.10101       	1.528080e-05
5.15152       	2.099182e-05
5.20202       	2.857741e-05
5.25253       	3.855236e-05
5.30303       	5.155879e-05
5.35354       	6.837053e-05
5.40404       	8.991150e-05
5.45455       	1.172698e-04
5.50505       	1.517131e-04
5.55556       	1.947008e-04
5.60606       	2.479114e-04
5.65657       	3.132687e-04
5.70707       	3.928776e-04
5.75758       	4.890866e-04
5.80808       	6.044336e-04
5.85859       	7.416465e-04
5.90909       	9.036060e-04
5.9596        	1.093335e-03
6.0101        	1.313876e-03
6.06061       	1.568296e-03
6.11111       	1.859621e-03
6.16162       	2.190760e-03
6.21212       	2.564432e-03
6.26263       	2.983073e-03
6.31313       	3.448800e-03
6.36364       	3.963194e-03
6.41414       	4.527428e-03
6.46465       	5.142138e-03
6.51515       	5.807046e-03
6.56566       	6.521035e-03
6.61616       	7.282197e-03
6.66667       	8.087910e-03
6.71717       	8.935214e-03
6.76768       	9.820379e-03
6.81818       	1.073871e-02
6.86869       	1.168480e-02
6.91919       	1.265178e-02
6.9697        	1.363293e-02
7.0202        	1.462095e-02
7.07071       	1.560874e-02
7.12121       	1.659065e-02
7.17172       	1.756072e-02
7.22222       	1.851166e-02
7.27273       	1.943668e-02
7.32323       	2.033016e-02
7.37374       	2.118550e-02
7.42424       	2.199700e-02
7.47475       	2.275976e-02
7.52525       	2.346997e-02
7.57576       	2.412384e-02
7.62626       	2.471904e-02
7.67677       	2.525459e-02
7.72727       	2.572951e-02
7.77778       	2.614262e-02
7.82828       	2.649353e-02
7.87879       	2.678331e-02
7.92929       	2.701387e-02
7.9798        	2.718671e-02
8.0303        	2.730115e-02
8.08081       	2.736050e-02
8.13131       	2.736679e-02
8.18182       	2.732466e-02
8.23232       	2.723462e-02
8.28283       	2.709679e-02
8.33333       	2.691443e-02
8.38384       	2.669298e-02
8.43434       	2.643550e-02
8.48485       	2.614810e-02
8.53535       	2.583793e-02
8.58586       	2.550814e-02
8.63636       	2.516190e-02
8.68687       	2.479713e-02
8.73737       	2.441630e-02
8.78788       	2.402011e-02
8.83838       	2.360803e-02
8.88889       	2.318481e-02
8.93939       	2.275235e-02
8.9899        	2.231342e-02
9.0404        	2.186805e-02
9.09091       	2.142028e-02
9.14141       	2.097218e-02
9.19192       	2.052436e-02
9.24242       	2.007831e-02
9.29293       	1.963632e-02
9.34343       	1.919977e-02
9.39394       	1.877017e-02
9.44444       	1.834874e-02
9.49495       	1.793660e-02
9.54545       	1.753419e-02
9.59596       	1.714070e-02
9.64646       	1.675625e-02
9.69697       	1.638161e-02
9.74747       	1.601669e-02
9.79798       	1.566054e-02
9.84848       	1.531276e-02
9.89899       	1.497356e-02
9.94949       	1.464305e-02
10            	1.432175e-02
10.0505       	1.400951e-02
10.101        	1.370622e-02
10.1515       	1.341163e-02
10.202        	1.312531e-02
10.2525       	1.284653e-02
10.303        	1.257461e-02
10.3535       	1.230852e-02
10.404        	1.204731e-02
10.4545       	1.179089e-02
10.5051       	1.153905e-02
10.5556       	1.129224e-02
10.6061       	1.105066e-02
10.6566       	1.081464e-02
10.7071       	1.058431e-02
10.7576       	1.035934e-02
10.8081       	1.013965e-02
10.8586       	9.925296e-03
10.9091       	9.716356e-03
10.9596       	9.512821e-03
11.0101       	9.314327e-03
11.0606       	9.120570e-03
11.1111       	8.931462e-03
11.1616       	8.746906e-03
11.2121       	8.566751e-03
11.2626       	8.390999e-03
11.3131       	8.219669e-03
11.3636       	8.052758e-03
11.4141       	7.890433e-03
11.4646       	7.732863e-03
11.5152       	7.580008e-03
11.5657       	7.431971e-03
11.6162       	7.288736e-03
11.6667       	7.150179e-03
11.7172       	7.016211e-03
11.7677       	6.886868e-03
11.8182       	6.762224e-03
11.8687       	6.642482e-03
11.9192       	6.527639e-03
11.9697       	6.417748e-03
12.0202       	6.312594e-03
12.0707       	6.212028e-03
12.1212       	6.115871e-03
12.1717       	6.024140e-03
12.2222       	5.936785e-03
12.2727       	5.853756e-03
12.3232       	5.774736e-03
12.3737       	5.699509e-03
12.4242       	5.627821e-03
12.4747       	5.559292e-03
12.5253       	5.493572e-03
12.5758       	5.430416e-03
12.6263       	5.369657e-03
12.6768       	5.311114e-03
12.7273       	5.254539e-03
12.7778       	5.199896e-03
12.8283       	5.147034e-03
12.8788       	5.095944e-03
12.9293       	5.046296e-03
12.9798       	4.997947e-03
13.0303       	4.950782e-03
13.0808       	4.904702e-03
13.1313       	4.859645e-03
13.1818       	4.815637e-03
13.2323       	4.772581e-03
13.2828       	4.730340e-03
13.3333       	4.688856e-03
13.3838       	4.648026e-03
13.4343       	4.607851e-03
13.4848       	4.568317e-03
13.5354       	4.529400e-03
13.5859       	4.491099e-03
13.6364       	4.453544e-03
13.6869       	4.416724e-03
13.7374       	4.380613e-03
13.7879       	4.345188e-03
13.8384       	4.310378e-03
13.8889       	4.276174e-03
13.9394       	4.242660e-03
13.9899       	4.209757e-03
14.0404       	4.177393e-03
14.0909       	4.145514e-03
14.1414       	4.114076e-03
14.1919       	4.083047e-03
14.2424       	4.052359e-03
14.2929       	4.021978e-03
14.3434       	3.991945e-03
14.3939       	3.962292e-03
14.4444       	3.933037e-03
14.4949       	3.904208e-03
14.5455       	3.875814e-03
14.596        	3.847914e-03
14.6465       	3.820497e-03
14.697        	3.793554e-03
14.7475       	3.767041e-03
14.798        	3.740931e-03
14.8485       	3.715193e-03
14.899        	3.689813e-03
14.9495       	3.664759e-03
15            	3.639991e-03
15.0505       	3.615475e-03
15.101        	3.591179e-03
15.1515       	3.567077e-03
15.202        	3.543151e-03
15.2525       	3.519411e-03
15.303        	3.495821e-03
15.3535       	3.472347e-03
15.404        	3.448937e-03
15.4545       	3.425520e-03
15.5051       	3.402122e-03
15.5556       	3.378759e-03
15.6061       	3.355409e-03
15.6566       	3.332053e-03
15.7071       	3.308703e-03
15.7576       	3.285342e-03
15.8081       	3.261946e-03
15.8586       	3.238521e-03
15.9091       	3.215093e-03
15.9596       	3.191712e-03
16.0101       	3.168427e-03
16.0606       	3.145266e-03
16.1111       	3.122272e-03
16.1616       	3.099483e-03
16.2121       	3.076882e-03
16.2626       	3.054494e-03
16.3131       	3.032342e-03
16.3636       	3.010439e-03
16.4141       	2.988799e-03
16.4646       	2.967431e-03
16.5152       	2.946367e-03
16.5657       	2.925627e-03
16.6162       	2.905219e-03
16.6667       	2.885147e-03
16.7172       	2.865398e-03
16.7677       	2.845914e-03
16.8182       	2.826688e-03
16.8687       	2.807735e-03
16.9192       	2.789035e-03
16.9697       	2.770584e-03
17.0202       	2.752366e-03
17.0707       	2.734364e-03
17.1212       	2.716579e-03
17.1717       	2.698964e-03
17.2222       	2.681509e-03
17.2727       	2.664216e-03
17.3232       	2.647086e-03
17.3737       	2.630119e-03
17.4242       	2.613324e-03
17.4747       	2.596708e-03
17.5253       	2.580275e-03
17.5758       	2.564028e-03
17.6263       	2.547964e-03
17.6768       	2.532093e-03
17.7273       	2.516438e-03
17.7778       	2.500995e-03
17.8283       	2.485760e-03
17.8788       	2.470736e-03
17.9293       	2.455917e-03
17.9798       	2.441299e-03
18.0303       	2.426840e-03
18.0808       	2.412530e-03
18.1313       	2.398369e-03
18.1818       	2.384355e-03
18.2323       	2.370486e-03
18.2828       	2.356761e-03
18.3333       	2.343176e-03
18.3838       	2.329733e-03
18.4343       	2.316425e-03
18.4848       	2.303235e-03
18.5354       	2.290162e-03
18.5859       	2.277203e-03
18.6364       	2.264361e-03
18.6869       	2.251639e-03
18.7374       	2.239038e-03
18.7879       	2.226555e-03
18.8384       	2.214188e-03
18.8889       	2.201908e-03
18.9394       	2.189708e-03
18.9899       	2.177585e-03
19.0404       	2.165576e-03
19.0909       	2.153695e-03
19.1414       	2.141944e-03
19.1919       	2.130313e-03
19.2424       	2.118806e-03
19.2929       	2.107428e-03
19.3434       	2.096176e-03
19.3939       	2.085048e-03
19.4444       	2.074042e-03
19.4949       	2.063157e-03
19.5455       	2.052392e-03
19.596        	2.041745e-03
19.6465       	2.031215e-03
19.697        	2.020801e-03
19.7475       	2.010501e-03
19.798        	2.000298e-03
19.8485       	1.990203e-03
19.899        	1.980209e-03
