# Region type : patch outlet
# Faces       : 320
# Area        : 1.945339e-05
# Scale factor: 1.000000e+00
# Time        	areaAverage(s)
1.2e-06       	0.000000e+00
2.64e-06      	0.000000e+00
4.368e-06     	0.000000e+00
6.4416e-06    	0.000000e+00
8.92992e-06   	0.000000e+00
1.19159e-05   	0.000000e+00
1.54991e-05   	0.000000e+00
1.97989e-05   	0.000000e+00
2.49587e-05   	0.000000e+00
3.11504e-05   	0.000000e+00
3.85805e-05   	0.000000e+00
4.74965e-05   	0.000000e+00
5.81958e-05   	0.000000e+00
7.1035e-05    	0.000000e+00
8.6442e-05    	0.000000e+00
0.00010493    	0.000000e+00
0.000127116   	0.000000e+00
0.00015374    	0.000000e+00
0.000185688   	0.000000e+00
0.000224025   	0.000000e+00
0.00027003    	0.000000e+00
0.000325236   	0.000000e+00
0.000391483   	0.000000e+00
0.00047098    	0.000000e+00
0.000566376   	0.000000e+00
0.00068085    	0.000000e+00
0.000818221   	0.000000e+00
0.000983063   	0.000000e+00
0.00118087    	0.000000e+00
0.00141824    	0.000000e+00
0.0017031     	0.000000e+00
0.00204491    	0.000000e+00
0.00245508    	0.000000e+00
0.0029473     	0.000000e+00
0.00353797    	0.000000e+00
0.00424679    	0.000000e+00
0.00509742    	0.000000e+00
0.00611825    	0.000000e+00
0.00734314    	0.000000e+00
0.00881286    	0.000000e+00
0.0105765     	0.000000e+00
0.0126925     	0.000000e+00
0.0152319     	0.000000e+00
0.0182788     	0.000000e+00
0.0219337     	0.000000e+00
0.0263197     	2.373947e-308
0.0315829     	-5.956264e-281
0.037896      	-9.533981e-252
0.0454717     	1.770331e-228
0.0545626     	-4.407430e-204
0.0654556     	2.843261e-183
0.0781408     	-4.827522e-166
0.0926169     	4.942839e-149
0.108866      	-2.405742e-133
0.126915      	-5.792748e-121
0.145031      	-6.619434e-111
0.163146      	3.330151e-104
0.18133       	4.730004e-100
0.199177      	6.981309e-96
0.216698      	4.583470e-93
0.233966      	1.470721e-91
0.251049      	2.593757e-90
0.268009      	3.019575e-89
0.284909      	2.744713e-88
0.301749      	2.055685e-87
0.318528      	1.316435e-86
0.335248      	7.348660e-86
0.351967      	3.784965e-85
0.368687      	2.388561e-85
0.385406      	-2.427938e-84
0.402126      	-1.747254e-83
0.418846      	-8.724491e-83
0.435626      	-4.186120e-82
0.452407      	-1.821442e-81
0.469188      	-7.251432e-81
0.485969      	-2.583059e-80
0.502749      	-7.923685e-80
0.519593      	-1.930470e-79
0.536437      	-1.205324e-79
0.55328       	2.049238e-78
0.570124      	1.667864e-77
0.586968      	9.170791e-77
0.603876      	4.418904e-76
0.620784      	1.907189e-75
0.637692      	7.669097e-75
0.6546        	2.925427e-74
0.671508      	1.069995e-73
0.688417      	3.778893e-73
0.705391      	1.324581e-72
0.722366      	4.489088e-72
0.739341      	1.483694e-71
0.756316      	4.802285e-71
0.77329       	1.526395e-70
0.790265      	4.774158e-70
0.80724       	1.471800e-69
0.824215      	4.478789e-69
0.841189      	1.367356e-68
0.858234      	4.146404e-68
0.875278      	1.229104e-67
0.892322      	3.586668e-67
0.909367      	1.039509e-66
0.926411      	2.958609e-66
0.943455      	8.301685e-66
0.960499      	2.300589e-65
0.977544      	6.306634e-65
0.994588      	1.713274e-64
1.01163       	4.619792e-64
1.02868       	1.237909e-63
1.04579       	3.354283e-63
1.06291       	8.996287e-63
1.08003       	2.392932e-62
1.09715       	6.311967e-62
1.11427       	1.650135e-61
1.13138       	4.273622e-61
1.1485        	1.096439e-60
1.16562       	2.787611e-60
1.18274       	7.027572e-60
1.19985       	1.758221e-59
1.21697       	4.369463e-59
1.23409       	1.079430e-58
1.25121       	2.652709e-58
1.26833       	6.488014e-58
1.28544       	1.579885e-57
1.30256       	3.831303e-57
1.31976       	9.413130e-57
1.33696       	2.295608e-56
1.35415       	5.570602e-56
1.37135       	1.346028e-55
1.38855       	3.239340e-55
1.40575       	7.765737e-55
1.42294       	1.854870e-54
1.44014       	4.415156e-54
1.45734       	1.047907e-53
1.47453       	2.481259e-53
1.49173       	5.867907e-53
1.50893       	1.386212e-52
1.52613       	3.272759e-52
1.54332       	7.726712e-52
1.56052       	1.824044e-51
1.57772       	4.305124e-51
1.59492       	1.015625e-50
1.61211       	2.393601e-50
1.62931       	5.631922e-50
1.64651       	1.322166e-49
1.66371       	3.095340e-49
1.6809        	7.223462e-49
1.6981        	1.679723e-48
1.7153        	3.891010e-48
1.7325        	8.976727e-48
1.74969       	2.062182e-47
1.76689       	4.716706e-47
1.78409       	1.074006e-46
1.80129       	2.434306e-46
1.81848       	5.491591e-46
1.83568       	1.232903e-45
1.85288       	2.754408e-45
1.87007       	6.123063e-45
1.88727       	1.354800e-44
1.90447       	2.982853e-44
1.92167       	6.535008e-44
1.93886       	1.424692e-43
1.95606       	3.090814e-43
1.97326       	6.673107e-43
1.99046       	1.433880e-42
2.00765       	3.066633e-42
2.02485       	6.528305e-42
2.04205       	1.383376e-41
2.05925       	2.918045e-41
2.07644       	6.127140e-41
2.09364       	1.280681e-40
2.11084       	2.664676e-40
2.12804       	5.519188e-40
2.14523       	1.048195e-39
2.16243       	2.042947e-39
2.17963       	4.021306e-39
2.19683       	7.930694e-39
2.21402       	1.559613e-38
2.23122       	3.054702e-38
2.24842       	5.965899e-38
2.26561       	1.164211e-37
2.28281       	2.273584e-37
2.30001       	4.446803e-37
2.31721       	8.712071e-37
2.3344        	1.709416e-36
2.3516        	3.357335e-36
2.3688        	6.596116e-36
2.386         	1.295027e-35
2.40319       	2.538395e-35
2.42039       	4.963485e-35
2.43759       	9.676604e-35
2.45479       	1.880279e-34
2.47198       	3.641113e-34
2.48918       	7.027121e-34
2.50638       	1.351755e-33
2.52358       	2.592110e-33
2.54077       	4.955734e-33
2.55797       	9.447588e-33
2.57517       	1.796099e-32
2.59237       	3.405406e-32
2.60956       	6.439476e-32
2.62676       	1.214433e-31
2.64396       	2.284163e-31
2.66115       	4.284346e-31
2.67835       	8.013276e-31
2.69555       	1.494330e-30
2.71275       	2.777955e-30
2.72994       	5.147060e-30
2.74714       	9.502732e-30
2.76434       	1.747764e-29
2.78154       	3.201409e-29
2.79873       	5.838546e-29
2.81593       	1.059888e-28
2.83313       	1.914708e-28
2.85033       	3.441466e-28
2.86752       	6.153365e-28
2.88472       	1.094356e-27
2.90192       	1.935775e-27
2.91912       	3.405740e-27
2.93631       	5.960300e-27
2.95351       	1.037768e-26
2.97071       	1.798128e-26
2.98791       	3.101590e-26
3.0051        	5.328312e-26
3.0223        	9.121699e-26
3.0395        	1.557118e-25
3.05669       	2.652418e-25
3.07389       	4.512097e-25
3.09109       	7.671565e-25
3.10829       	1.304702e-24
3.12548       	2.221215e-24
3.14268       	3.787942e-24
3.15988       	6.473859e-24
3.17708       	1.109165e-23
3.19427       	1.905150e-23
3.21147       	3.280093e-23
3.22867       	5.658426e-23
3.24587       	9.774768e-23
3.26306       	1.689688e-22
3.28026       	2.920429e-22
3.29746       	5.042699e-22
3.31466       	8.691578e-22
3.33185       	1.494233e-21
3.34905       	2.560471e-21
3.36625       	4.370578e-21
3.38345       	7.427639e-21
3.40064       	1.256238e-20
3.41784       	2.113748e-20
3.43504       	3.537361e-20
3.45223       	5.886666e-20
3.46943       	9.740382e-20
3.48663       	1.602488e-19
3.50383       	2.621632e-19
3.52102       	4.265828e-19
3.53822       	6.906254e-19
3.55542       	1.112975e-18
3.57262       	1.786320e-18
3.58981       	2.856960e-18
3.60701       	4.555777e-18
3.62421       	7.247166e-18
3.64141       	1.150659e-17
3.6586        	1.824451e-17
3.6758        	2.890489e-17
3.693         	4.578541e-17
3.7102        	7.256177e-17
3.72739       	1.151557e-16
3.74459       	1.832193e-16
3.76179       	2.922762e-16
3.77899       	4.673502e-16
3.79618       	7.490218e-16
3.81338       	1.201500e-15
3.83058       	1.929519e-15
3.84777       	3.102483e-15
3.86497       	5.016367e-15
3.88217       	8.090229e-15
3.89937       	1.301687e-14
3.91656       	2.089848e-14
3.93376       	3.348423e-14
3.95096       	5.353214e-14
3.96816       	8.535208e-14
3.98535       	1.356291e-13
4.00255       	2.146679e-13
4.01975       	3.382682e-13
4.03695       	5.305287e-13
4.05414       	8.280011e-13
4.07134       	1.285818e-12
4.08854       	1.986537e-12
4.10574       	3.053076e-12
4.12293       	4.667332e-12
4.14013       	7.096909e-12
4.15733       	1.073328e-11
4.17453       	1.614597e-11
4.19172       	2.415878e-11
4.20892       	3.595675e-11
4.22612       	5.323521e-11
4.24331       	7.840686e-11
4.26051       	1.148856e-10
4.27771       	1.674764e-10
4.29491       	2.429068e-10
4.3121        	3.505505e-10
4.3293        	5.033982e-10
4.3465        	7.193509e-10
4.3637        	1.022966e-09
4.38089       	1.447764e-09
4.39809       	2.039260e-09
4.41529       	2.858960e-09
4.43249       	3.989593e-09
4.44968       	5.541858e-09
4.46688       	7.663148e-09
4.48408       	1.054869e-08
4.50128       	1.445598e-08
4.51847       	1.972285e-08
4.53567       	2.679070e-08
4.55287       	3.623339e-08
4.57007       	4.879389e-08
4.58726       	6.542812e-08
4.60446       	8.736093e-08
4.62166       	1.161528e-07
4.63885       	1.537887e-07
4.65605       	2.027810e-07
4.67325       	2.662882e-07
4.69045       	3.482695e-07
4.70764       	4.536654e-07
4.72484       	5.886016e-07
4.74204       	7.606477e-07
4.75924       	9.791515e-07
4.77643       	1.255563e-06
4.79363       	1.603854e-06
4.81083       	2.040986e-06
4.82803       	2.587488e-06
4.84522       	3.268095e-06
4.86242       	4.112454e-06
4.87962       	5.155958e-06
4.89682       	6.440687e-06
4.91401       	8.016430e-06
4.93121       	9.941853e-06
4.94841       	1.228570e-05
4.96561       	1.512827e-05
4.9828        	1.856289e-05
5             	2.269754e-05
5.01718       	2.765128e-05
5.03436       	3.356990e-05
5.05155       	4.061551e-05
5.06873       	4.897218e-05
5.08591       	5.884801e-05
5.10309       	7.047713e-05
5.12027       	8.412185e-05
5.13746       	1.000745e-04
5.15464       	1.186594e-04
5.17182       	1.402334e-04
5.189         	1.651897e-04
5.20619       	1.939595e-04
5.22337       	2.270119e-04
5.24055       	2.648520e-04
5.25773       	3.080148e-04
5.27491       	3.570794e-04
5.2921        	4.126617e-04
5.30928       	4.754136e-04
5.32646       	5.460202e-04
5.34364       	6.251972e-04
5.36082       	7.136858e-04
5.37801       	8.122451e-04
5.39519       	9.216497e-04
5.41237       	1.042702e-03
5.42955       	1.176193e-03
5.44674       	1.322919e-03
5.46392       	1.483675e-03
5.4811        	1.659249e-03
5.49828       	1.850416e-03
5.51546       	2.057907e-03
5.53265       	2.282441e-03
5.54983       	2.524692e-03
5.56701       	2.785220e-03
5.58419       	3.064576e-03
5.60137       	3.363188e-03
5.61856       	3.681438e-03
5.63574       	4.019658e-03
5.65292       	4.378055e-03
5.6701        	4.756682e-03
5.68729       	5.155484e-03
5.70447       	5.574295e-03
5.72165       	6.012838e-03
5.73883       	6.470694e-03
5.75601       	6.947338e-03
5.7732        	7.442197e-03
5.79038       	7.954537e-03
5.80756       	8.483468e-03
5.82474       	9.027945e-03
5.84192       	9.586840e-03
5.85911       	1.015886e-02
5.87629       	1.074266e-02
5.89347       	1.133682e-02
5.91065       	1.193985e-02
5.92784       	1.255013e-02
5.94502       	1.316610e-02
5.9622        	1.378609e-02
5.97938       	1.440846e-02
5.99656       	1.503145e-02
6.01375       	1.565319e-02
6.03093       	1.627190e-02
6.04811       	1.688585e-02
6.06529       	1.749338e-02
6.08247       	1.809276e-02
6.09966       	1.868240e-02
6.11684       	1.926077e-02
6.13402       	1.982636e-02
6.1512        	2.037786e-02
6.16838       	2.091409e-02
6.18557       	2.143367e-02
6.20275       	2.193548e-02
6.21993       	2.241857e-02
6.23711       	2.288205e-02
6.2543        	2.332521e-02
6.27148       	2.374741e-02
6.28866       	2.414817e-02
6.30584       	2.452719e-02
6.32302       	2.488436e-02
6.34021       	2.521931e-02
6.35739       	2.553195e-02
6.37457       	2.582229e-02
6.39175       	2.609044e-02
6.40893       	2.633660e-02
6.42612       	2.656104e-02
6.4433        	2.676410e-02
6.46048       	2.694615e-02
6.47766       	2.710768e-02
6.49485       	2.724935e-02
6.51203       	2.737197e-02
6.52921       	2.747610e-02
6.54639       	2.756250e-02
6.56357       	2.763195e-02
6.58076       	2.768560e-02
6.59794       	2.772427e-02
6.61512       	2.774876e-02
6.6323        	2.776026e-02
6.64948       	2.775969e-02
6.66667       	2.774797e-02
6.68385       	2.772657e-02
6.70103       	2.769732e-02
6.71821       	2.766098e-02
6.7354        	2.761788e-02
6.75258       	2.756747e-02
6.76976       	2.750993e-02
6.78694       	2.744715e-02
6.80412       	2.738093e-02
6.82131       	2.731196e-02
6.83849       	2.724097e-02
6.85567       	2.716811e-02
6.87285       	2.709414e-02
6.89003       	2.701968e-02
6.90722       	2.694508e-02
6.9244        	2.687043e-02
6.94158       	2.679596e-02
6.95876       	2.672136e-02
6.97595       	2.664640e-02
6.99313       	2.657065e-02
7.01031       	2.649488e-02
7.02749       	2.641955e-02
7.04467       	2.634547e-02
7.06186       	2.627303e-02
7.07904       	2.620254e-02
7.09622       	2.613435e-02
7.1134        	2.606838e-02
7.13058       	2.600481e-02
7.14777       	2.594379e-02
7.16495       	2.588520e-02
7.18213       	2.582890e-02
7.19931       	2.577478e-02
7.21649       	2.572278e-02
7.23368       	2.567241e-02
7.25086       	2.562337e-02
7.26804       	2.557564e-02
7.28522       	2.552927e-02
7.30241       	2.548466e-02
7.31959       	2.544185e-02
7.33677       	2.540097e-02
7.35395       	2.536184e-02
7.37113       	2.532434e-02
7.38832       	2.528855e-02
7.4055        	2.525453e-02
7.42268       	2.522257e-02
7.43986       	2.519248e-02
7.45704       	2.516416e-02
7.47423       	2.513729e-02
7.49141       	2.511155e-02
7.50859       	2.508695e-02
7.52577       	2.506312e-02
7.54296       	2.503981e-02
7.56014       	2.501693e-02
7.57732       	2.499447e-02
7.5945        	2.497209e-02
7.61168       	2.494943e-02
7.62887       	2.492647e-02
7.64605       	2.490314e-02
7.66323       	2.487911e-02
7.68041       	2.485427e-02
7.69759       	2.482858e-02
7.71478       	2.480197e-02
7.73196       	2.477430e-02
7.74914       	2.474544e-02
7.76632       	2.471536e-02
7.78351       	2.468385e-02
7.80069       	2.465078e-02
7.81787       	2.461618e-02
7.83505       	2.458015e-02
7.85223       	2.454287e-02
7.86942       	2.450459e-02
7.8866        	2.446545e-02
7.90378       	2.442564e-02
7.92096       	2.438519e-02
7.93814       	2.434427e-02
7.95533       	2.430286e-02
7.97251       	2.426089e-02
7.98969       	2.421862e-02
8.00687       	2.417616e-02
8.02405       	2.413342e-02
8.04124       	2.409029e-02
8.05842       	2.404677e-02
8.0756        	2.400289e-02
8.09278       	2.395865e-02
8.10997       	2.391407e-02
8.12715       	2.386912e-02
8.14433       	2.382397e-02
8.16151       	2.377860e-02
8.17869       	2.373300e-02
8.19588       	2.368684e-02
8.21306       	2.364009e-02
8.23024       	2.359273e-02
8.24742       	2.354474e-02
8.2646        	2.349633e-02
8.28179       	2.344754e-02
8.29897       	2.339829e-02
8.31615       	2.334853e-02
8.33333       	2.329818e-02
8.35052       	2.324724e-02
8.3677        	2.319575e-02
8.38488       	2.314370e-02
8.40206       	2.309109e-02
8.41924       	2.303810e-02
8.43643       	2.298478e-02
8.45361       	2.293095e-02
8.47079       	2.287645e-02
8.48797       	2.282121e-02
8.50515       	2.276517e-02
8.52234       	2.270830e-02
8.53952       	2.265063e-02
8.5567        	2.259208e-02
8.57388       	2.253259e-02
8.59107       	2.247208e-02
8.60825       	2.241054e-02
8.62543       	2.234790e-02
8.64261       	2.228415e-02
8.65979       	2.221921e-02
8.67698       	2.215294e-02
8.69416       	2.208521e-02
8.71134       	2.201598e-02
8.72852       	2.194522e-02
8.7457        	2.187293e-02
8.76289       	2.179898e-02
8.78007       	2.172321e-02
8.79725       	2.164566e-02
8.81443       	2.156635e-02
8.83162       	2.148529e-02
8.8488        	2.140254e-02
8.86598       	2.131806e-02
8.88316       	2.123179e-02
8.90034       	2.114386e-02
8.91753       	2.105416e-02
8.93471       	2.096275e-02
8.95189       	2.086971e-02
8.96907       	2.077516e-02
8.98625       	2.067914e-02
9.00344       	2.058167e-02
9.02062       	2.048285e-02
9.0378        	2.038283e-02
9.05498       	2.028166e-02
9.07216       	2.017929e-02
9.08935       	2.007562e-02
9.10653       	1.997067e-02
9.12371       	1.986454e-02
9.14089       	1.975736e-02
9.15808       	1.964921e-02
9.17526       	1.954017e-02
9.19244       	1.943041e-02
9.20962       	1.931992e-02
9.2268        	1.920872e-02
9.24399       	1.909677e-02
9.26117       	1.898395e-02
9.27835       	1.887022e-02
9.29553       	1.875564e-02
9.31271       	1.864033e-02
9.3299        	1.852431e-02
9.34708       	1.840750e-02
9.36426       	1.829007e-02
9.38144       	1.817213e-02
9.39863       	1.805355e-02
9.41581       	1.793439e-02
9.43299       	1.781484e-02
9.45017       	1.769512e-02
9.46735       	1.757522e-02
9.48454       	1.745522e-02
9.50172       	1.733525e-02
9.5189        	1.721533e-02
9.53608       	1.709552e-02
9.55326       	1.697587e-02
9.57045       	1.685638e-02
9.58763       	1.673708e-02
9.60481       	1.661800e-02
9.62199       	1.649920e-02
9.63918       	1.638057e-02
9.65636       	1.626210e-02
9.67354       	1.614384e-02
9.69072       	1.602580e-02
9.7079        	1.590805e-02
9.72509       	1.579061e-02
9.74227       	1.567352e-02
9.75945       	1.555674e-02
9.77663       	1.544031e-02
9.79381       	1.532430e-02
9.811         	1.520876e-02
9.82818       	1.509372e-02
9.84536       	1.497922e-02
9.86254       	1.486536e-02
9.87973       	1.475223e-02
9.89691       	1.463991e-02
9.91409       	1.452845e-02
9.93127       	1.441783e-02
9.94845       	1.430803e-02
9.96564       	1.419903e-02
9.98282       	1.409081e-02
10            	1.398334e-02
10.0172       	1.387660e-02
10.0344       	1.377063e-02
10.0515       	1.366531e-02
10.0687       	1.356068e-02
10.0859       	1.345679e-02
10.1031       	1.335353e-02
10.1203       	1.325093e-02
10.1375       	1.314903e-02
10.1546       	1.304787e-02
10.1718       	1.294747e-02
10.189        	1.284783e-02
10.2062       	1.274894e-02
10.2234       	1.265082e-02
10.2405       	1.255346e-02
10.2577       	1.245687e-02
10.2749       	1.236106e-02
10.2921       	1.226605e-02
10.3093       	1.217184e-02
10.3265       	1.207846e-02
10.3436       	1.198593e-02
10.3608       	1.189430e-02
10.378        	1.180355e-02
10.3952       	1.171365e-02
10.4124       	1.162459e-02
10.4296       	1.153637e-02
10.4467       	1.144896e-02
10.4639       	1.136234e-02
10.4811       	1.127649e-02
10.4983       	1.119141e-02
10.5155       	1.110712e-02
10.5326       	1.102357e-02
10.5498       	1.094075e-02
10.567        	1.085864e-02
10.5842       	1.077722e-02
10.6014       	1.069645e-02
10.6186       	1.061630e-02
10.6357       	1.053671e-02
10.6529       	1.045770e-02
10.6701       	1.037919e-02
10.6873       	1.030112e-02
10.7045       	1.022344e-02
10.7216       	1.014612e-02
10.7388       	1.006917e-02
10.756        	9.992587e-03
10.7732       	9.916385e-03
10.7904       	9.840599e-03
10.8076       	9.765277e-03
10.8247       	9.690455e-03
10.8419       	9.616163e-03
10.8591       	9.542416e-03
10.8763       	9.469240e-03
10.8935       	9.396635e-03
10.9107       	9.324582e-03
10.9278       	9.253093e-03
10.945        	9.182182e-03
10.9622       	9.111839e-03
10.9794       	9.042056e-03
10.9966       	8.972817e-03
11.0137       	8.904095e-03
11.0309       	8.835865e-03
11.0481       	8.768123e-03
11.0653       	8.700842e-03
11.0825       	8.633998e-03
11.0997       	8.567600e-03
11.1168       	8.501649e-03
11.134        	8.436152e-03
11.1512       	8.371109e-03
11.1684       	8.306506e-03
11.1856       	8.242347e-03
11.2027       	8.178642e-03
11.2199       	8.115400e-03
11.2371       	8.052615e-03
11.2543       	7.990272e-03
11.2715       	7.928365e-03
11.2887       	7.866874e-03
11.3058       	7.805788e-03
11.323        	7.745096e-03
11.3402       	7.684788e-03
11.3574       	7.624855e-03
11.3746       	7.565302e-03
11.3918       	7.506120e-03
11.4089       	7.447299e-03
11.4261       	7.388847e-03
11.4433       	7.330777e-03
11.4605       	7.273099e-03
11.4777       	7.215802e-03
11.4948       	7.158883e-03
11.512        	7.102352e-03
11.5292       	7.046221e-03
11.5464       	6.990484e-03
11.5636       	6.935143e-03
11.5808       	6.880200e-03
11.5979       	6.825649e-03
11.6151       	6.771487e-03
11.6323       	6.717716e-03
11.6495       	6.664332e-03
11.6667       	6.611339e-03
11.6838       	6.558794e-03
11.701        	6.506701e-03
11.7182       	6.455050e-03
11.7354       	6.403824e-03
11.7526       	6.352999e-03
11.7698       	6.302546e-03
11.7869       	6.252566e-03
11.8041       	6.203111e-03
11.8213       	6.154261e-03
11.8385       	6.106049e-03
11.8557       	6.058568e-03
11.8729       	6.011815e-03
11.89         	5.965803e-03
11.9072       	5.920560e-03
11.9244       	5.876101e-03
11.9416       	5.832369e-03
11.9588       	5.789371e-03
11.9759       	5.747091e-03
11.9931       	5.705564e-03
12.0103       	5.664863e-03
12.0275       	5.625082e-03
12.0447       	5.586258e-03
12.0619       	5.548312e-03
12.079        	5.511269e-03
12.0962       	5.475129e-03
12.1134       	5.439863e-03
12.1306       	5.405454e-03
12.1478       	5.371938e-03
12.1649       	5.339341e-03
12.1821       	5.307670e-03
12.1993       	5.276921e-03
12.2165       	5.247121e-03
12.2337       	5.218300e-03
12.2509       	5.190450e-03
12.268        	5.163580e-03
12.2852       	5.137639e-03
12.3024       	5.112706e-03
12.3196       	5.088783e-03
12.3368       	5.065789e-03
12.354        	5.043683e-03
12.3711       	5.022433e-03
12.3883       	5.002012e-03
12.4055       	4.982459e-03
12.4227       	4.963889e-03
12.4399       	4.946281e-03
12.457        	4.929571e-03
12.4742       	4.913661e-03
12.4914       	4.898437e-03
12.5086       	4.883873e-03
12.5258       	4.869904e-03
12.543        	4.856444e-03
12.5601       	4.843460e-03
12.5773       	4.830907e-03
12.5945       	4.818743e-03
12.6117       	4.806943e-03
12.6289       	4.795445e-03
12.646        	4.784209e-03
12.6632       	4.773274e-03
12.6804       	4.762602e-03
12.6976       	4.752216e-03
12.7148       	4.742095e-03
12.732        	4.732273e-03
12.7491       	4.722704e-03
12.7663       	4.713340e-03
12.7835       	4.704154e-03
12.8007       	4.695123e-03
12.8179       	4.686189e-03
12.8351       	4.677351e-03
12.8522       	4.668604e-03
12.8694       	4.659914e-03
12.8866       	4.651259e-03
12.9038       	4.642630e-03
12.921        	4.634053e-03
12.9381       	4.625499e-03
12.9553       	4.616936e-03
12.9725       	4.608352e-03
12.9897       	4.599813e-03
13.0069       	4.591309e-03
13.0241       	4.582824e-03
13.0412       	4.574352e-03
13.0584       	4.565884e-03
13.0756       	4.557430e-03
13.0928       	4.549008e-03
13.11         	4.540588e-03
13.1271       	4.532148e-03
13.1443       	4.523669e-03
13.1615       	4.515153e-03
13.1787       	4.506622e-03
13.1959       	4.498059e-03
13.2131       	4.489453e-03
13.2302       	4.480791e-03
13.2474       	4.472088e-03
13.2646       	4.463348e-03
13.2818       	4.454550e-03
13.299        	4.445709e-03
13.3162       	4.436832e-03
13.3333       	4.427916e-03
13.3505       	4.418973e-03
13.3677       	4.410000e-03
13.3849       	4.400989e-03
13.4021       	4.391944e-03
13.4192       	4.382872e-03
13.4364       	4.373778e-03
13.4536       	4.364666e-03
13.4708       	4.355542e-03
13.488        	4.346413e-03
13.5052       	4.337274e-03
13.5223       	4.328130e-03
13.5395       	4.318990e-03
13.5567       	4.309864e-03
13.5739       	4.300794e-03
13.5911       	4.291775e-03
13.6082       	4.282801e-03
13.6254       	4.273866e-03
13.6426       	4.264962e-03
13.6598       	4.256095e-03
13.677        	4.247272e-03
13.6942       	4.238502e-03
13.7113       	4.229773e-03
13.7285       	4.221065e-03
13.7457       	4.212398e-03
13.7629       	4.203774e-03
13.7801       	4.195195e-03
13.7973       	4.186661e-03
13.8144       	4.178171e-03
13.8316       	4.169725e-03
13.8488       	4.161359e-03
13.866        	4.153077e-03
13.8832       	4.144864e-03
13.9003       	4.136711e-03
13.9175       	4.128607e-03
13.9347       	4.120544e-03
13.9519       	4.112518e-03
13.9691       	4.104527e-03
13.9863       	4.096566e-03
14.0034       	4.088632e-03
14.0206       	4.080717e-03
14.0378       	4.072818e-03
14.055        	4.064931e-03
14.0722       	4.057053e-03
14.0893       	4.049179e-03
14.1065       	4.041305e-03
14.1237       	4.033430e-03
14.1409       	4.025568e-03
14.1581       	4.017734e-03
14.1753       	4.009914e-03
14.1924       	4.002098e-03
14.2096       	3.994274e-03
14.2268       	3.986436e-03
14.244        	3.978575e-03
14.2612       	3.970687e-03
14.2784       	3.962760e-03
14.2955       	3.954793e-03
14.3127       	3.946792e-03
14.3299       	3.938768e-03
14.3471       	3.930710e-03
14.3643       	3.922618e-03
14.3814       	3.914497e-03
14.3986       	3.906341e-03
14.4158       	3.898145e-03
14.433        	3.889903e-03
14.4502       	3.881616e-03
14.4674       	3.873288e-03
14.4845       	3.864913e-03
14.5017       	3.856488e-03
14.5189       	3.848011e-03
14.5361       	3.839480e-03
14.5533       	3.830894e-03
14.5704       	3.822251e-03
14.5876       	3.813546e-03
14.6048       	3.804780e-03
14.622        	3.795952e-03
14.6392       	3.787061e-03
14.6564       	3.778106e-03
14.6735       	3.769088e-03
14.6907       	3.760023e-03
14.7079       	3.750916e-03
14.7251       	3.741770e-03
14.7423       	3.732578e-03
14.7595       	3.723328e-03
14.7766       	3.714015e-03
14.7938       	3.704629e-03
14.811        	3.695161e-03
14.8282       	3.685607e-03
14.8454       	3.675962e-03
14.8625       	3.666215e-03
14.8797       	3.656334e-03
14.8969       	3.646324e-03
14.9141       	3.636191e-03
14.9313       	3.625935e-03
14.9485       	3.615449e-03
14.9656       	3.604730e-03
14.9828       	3.593752e-03
15            	3.582474e-03
15.0172       	3.570911e-03
15.0344       	3.559077e-03
15.0515       	3.546991e-03
15.0687       	3.534690e-03
15.0859       	3.522184e-03
15.1031       	3.509502e-03
15.1203       	3.496656e-03
15.1375       	3.483615e-03
15.1546       	3.470391e-03
15.1718       	3.456997e-03
15.189        	3.443449e-03
15.2062       	3.429730e-03
15.2234       	3.415840e-03
15.2405       	3.401794e-03
15.2577       	3.387609e-03
15.2749       	3.373301e-03
15.2921       	3.358883e-03
15.3093       	3.344376e-03
15.3265       	3.329796e-03
15.3436       	3.315139e-03
15.3608       	3.300402e-03
15.378        	3.285570e-03
15.3952       	3.270657e-03
15.4124       	3.255671e-03
15.4296       	3.240605e-03
15.4467       	3.225482e-03
15.4639       	3.210320e-03
15.4811       	3.195136e-03
15.4983       	3.179950e-03
15.5155       	3.164790e-03
15.5326       	3.149668e-03
15.5498       	3.134603e-03
15.567        	3.119601e-03
15.5842       	3.104653e-03
15.6014       	3.089773e-03
15.6186       	3.074971e-03
15.6357       	3.060260e-03
15.6529       	3.045651e-03
15.6701       	3.031153e-03
15.6873       	3.016743e-03
15.7045       	3.002424e-03
15.7216       	2.988192e-03
15.7388       	2.974038e-03
15.756        	2.959980e-03
15.7732       	2.946023e-03
15.7904       	2.932172e-03
15.8076       	2.918432e-03
15.8247       	2.904808e-03
15.8419       	2.891304e-03
15.8591       	2.877925e-03
15.8763       	2.864675e-03
15.8935       	2.851558e-03
15.9107       	2.838576e-03
15.9278       	2.825731e-03
15.945        	2.813025e-03
15.9622       	2.800462e-03
15.9794       	2.788042e-03
15.9966       	2.775765e-03
16.0137       	2.763630e-03
16.0309       	2.751637e-03
16.0481       	2.739785e-03
16.0653       	2.728087e-03
16.0825       	2.716538e-03
16.0997       	2.705137e-03
16.1168       	2.693883e-03
16.134        	2.682775e-03
16.1512       	2.671774e-03
16.1684       	2.660877e-03
16.1856       	2.650083e-03
16.2027       	2.639391e-03
16.2199       	2.628800e-03
16.2371       	2.618310e-03
16.2543       	2.607922e-03
16.2715       	2.597636e-03
16.2887       	2.587449e-03
16.3058       	2.577330e-03
16.323        	2.567277e-03
16.3402       	2.557291e-03
16.3574       	2.547374e-03
16.3746       	2.537525e-03
16.3918       	2.527742e-03
16.4089       	2.518023e-03
16.4261       	2.508371e-03
16.4433       	2.498786e-03
16.4605       	2.489271e-03
16.4777       	2.479827e-03
16.4948       	2.470454e-03
16.512        	2.461155e-03
16.5292       	2.451931e-03
16.5464       	2.442782e-03
16.5636       	2.433709e-03
16.5808       	2.424714e-03
16.5979       	2.415796e-03
16.6151       	2.406955e-03
16.6323       	2.398189e-03
16.6495       	2.389502e-03
16.6667       	2.380897e-03
16.6838       	2.372371e-03
16.701        	2.363919e-03
16.7182       	2.355538e-03
16.7354       	2.347224e-03
16.7526       	2.338977e-03
16.7698       	2.330794e-03
16.7869       	2.322674e-03
16.8041       	2.314617e-03
16.8213       	2.306621e-03
16.8385       	2.298694e-03
16.8557       	2.290831e-03
16.8729       	2.283001e-03
16.89         	2.275194e-03
16.9072       	2.267384e-03
16.9244       	2.259574e-03
16.9416       	2.251765e-03
16.9588       	2.243957e-03
16.9759       	2.236152e-03
16.9931       	2.228352e-03
17.0103       	2.220559e-03
17.0275       	2.212776e-03
17.0447       	2.205006e-03
17.0619       	2.197248e-03
17.079        	2.189507e-03
17.0962       	2.181782e-03
17.1134       	2.174077e-03
17.1306       	2.166392e-03
17.1478       	2.158728e-03
17.1649       	2.151088e-03
17.1821       	2.143471e-03
17.1993       	2.135882e-03
17.2165       	2.128320e-03
17.2337       	2.120789e-03
17.2509       	2.113291e-03
17.268        	2.105827e-03
17.2852       	2.098399e-03
17.3024       	2.091010e-03
17.3196       	2.083657e-03
17.3368       	2.076331e-03
17.354        	2.069034e-03
17.3711       	2.061767e-03
17.3883       	2.054534e-03
17.4055       	2.047335e-03
17.4227       	2.040172e-03
17.4399       	2.033046e-03
17.457        	2.025956e-03
17.4742       	2.018907e-03