# Region type : patch outlet
# Faces       : 320
# Area        : 1.945338e-05
# Scale factor: 1.000000e+00
# Time        	areaAverage(s)
1.2e-06       	0.000000e+00
2.64e-06      	0.000000e+00
4.368e-06     	0.000000e+00
6.4416e-06    	0.000000e+00
8.92992e-06   	0.000000e+00
1.19159e-05   	0.000000e+00
1.54991e-05   	0.000000e+00
1.97989e-05   	0.000000e+00
2.49587e-05   	0.000000e+00
3.11504e-05   	0.000000e+00
3.85805e-05   	0.000000e+00
4.74965e-05   	0.000000e+00
5.81958e-05   	0.000000e+00
7.1035e-05    	0.000000e+00
8.6442e-05    	0.000000e+00
0.00010493    	0.000000e+00
0.000127116   	0.000000e+00
0.00015374    	0.000000e+00
0.000185688   	0.000000e+00
0.000224025   	0.000000e+00
0.00027003    	0.000000e+00
0.000325236   	0.000000e+00
0.000391483   	0.000000e+00
0.00047098    	0.000000e+00
0.000566376   	0.000000e+00
0.00068085    	0.000000e+00
0.000818221   	0.000000e+00
0.000983063   	0.000000e+00
0.00118087    	0.000000e+00
0.00141824    	0.000000e+00
0.0017031     	0.000000e+00
0.00204491    	0.000000e+00
0.00245508    	0.000000e+00
0.0029473     	0.000000e+00
0.00353797    	0.000000e+00
0.00424679    	0.000000e+00
0.00509742    	0.000000e+00
0.00611825    	0.000000e+00
0.00734314    	0.000000e+00
0.00881286    	0.000000e+00
0.0105765     	0.000000e+00
0.0126925     	0.000000e+00
0.0152319     	0.000000e+00
0.0182788     	0.000000e+00
0.0219337     	0.000000e+00
0.0263197     	0.000000e+00
0.0315829     	0.000000e+00
0.037896      	1.872761e-298
0.0454717     	4.206360e-272
0.0545626     	1.340866e-247
0.0654797     	2.213639e-224
0.0785686     	-1.409631e-200
0.094292      	-1.038376e-179
0.11316       	-4.164415e-157
0.135784      	-5.366573e-136
0.162808      	-3.555454e-117
0.194015      	5.660155e-98
0.229096      	-4.225407e-85
0.267263      	-2.211511e-76
0.304529      	5.442975e-72
0.340928      	1.847070e-69
0.377044      	-6.107957e-67
0.412881      	-1.444596e-65
0.448718      	-1.447928e-64
0.484275      	-6.314655e-64
0.519281      	1.436591e-63
0.554015      	4.648459e-62
0.58848       	4.331538e-61
0.622678      	2.796171e-60
0.656876      	1.474408e-59
0.691073      	6.556676e-59
0.725271      	2.517556e-58
0.759469      	8.260870e-58
0.793393      	2.126026e-57
0.827318      	3.920576e-57
0.86152       	-6.996733e-58
0.895722      	-5.176976e-56
0.929924      	-3.255002e-55
0.964127      	-1.491071e-54
0.998329      	-5.860799e-54
1.03253       	-2.089728e-53
1.06673       	-6.947149e-53
1.10094       	-2.189143e-52
1.13514       	-6.623390e-52
1.16934       	-1.936433e-51
1.20354       	-5.500343e-51
1.23775       	-1.522505e-50
1.27195       	-4.114667e-50
1.30615       	-1.083512e-49
1.34035       	-2.768084e-49
1.37455       	-6.806773e-49
1.40876       	-1.588380e-48
1.44296       	-3.421791e-48
1.47716       	-6.380814e-48
1.51136       	-8.197982e-48
1.54557       	5.352093e-48
1.57977       	9.528482e-47
1.61397       	4.873010e-46
1.64817       	1.949483e-45
1.68238       	6.953567e-45
1.71658       	2.313068e-44
1.75078       	7.328144e-44
1.78498       	2.237132e-43
1.81918       	6.628946e-43
1.85339       	1.916023e-42
1.88759       	5.421491e-42
1.92179       	1.505885e-41
1.95599       	4.114955e-41
1.9902        	1.108189e-40
2.0244        	2.945718e-40
2.0586        	7.738287e-40
2.0928        	2.011184e-39
2.12701       	5.176290e-39
2.16121       	1.319726e-38
2.19541       	3.337381e-38
2.22961       	8.375610e-38
2.26381       	2.087185e-37
2.29802       	5.167227e-37
2.33222       	1.271438e-36
2.36642       	3.110504e-36
2.40062       	7.568322e-36
2.43483       	1.831958e-35
2.46903       	4.412401e-35
2.50323       	1.057688e-34
2.53743       	2.523627e-34
2.57164       	5.994147e-34
2.60584       	1.417420e-33
2.64004       	3.337078e-33
2.67424       	7.822545e-33
2.70844       	1.825817e-32
2.74265       	4.243311e-32
2.77685       	9.819800e-32
2.81105       	2.262894e-31
2.84525       	5.192874e-31
2.87946       	1.186742e-30
2.91366       	2.701083e-30
2.94786       	6.123311e-30
2.98206       	1.382732e-29
3.01627       	3.110521e-29
3.05047       	6.971249e-29
3.08467       	1.556707e-28
3.11887       	3.463804e-28
3.15307       	7.680230e-28
3.18728       	1.697011e-27
3.22148       	3.736714e-27
3.25568       	8.199459e-27
3.28988       	1.792900e-26
3.32409       	3.906430e-26
3.35829       	8.480642e-26
3.39249       	1.834298e-25
3.42669       	3.952497e-25
3.4609        	8.484092e-25
3.4951        	1.814040e-24
3.5293        	3.863485e-24
3.5635        	8.195850e-24
3.59771       	1.731768e-23
3.63191       	3.644788e-23
3.66611       	7.640999e-23
3.70031       	1.595629e-22
3.73451       	3.319131e-22
3.76872       	6.877487e-22
3.80292       	1.419522e-21
3.83712       	2.918406e-21
3.87132       	5.976029e-21
3.90553       	1.218713e-20
3.93973       	2.474876e-20
3.97393       	5.003782e-20
4.00813       	1.007053e-19
4.04234       	2.017065e-19
4.07654       	4.019767e-19
4.11074       	7.968834e-19
4.14494       	1.571128e-18
4.17914       	3.080177e-18
4.21335       	6.003948e-18
4.24755       	1.163528e-17
4.28175       	2.241763e-17
4.31595       	4.293914e-17
4.35016       	8.175629e-17
4.38436       	1.547254e-16
4.41856       	2.911600e-16
4.45276       	5.439889e-16
4.48697       	1.008624e-15
4.52117       	1.856269e-15
4.55537       	3.391087e-15
4.58957       	6.150931e-15
4.62377       	1.107871e-14
4.65798       	1.981115e-14
4.69218       	3.517037e-14
4.72638       	6.198356e-14
4.76058       	1.084374e-13
4.79479       	1.883090e-13
4.82899       	3.245970e-13
4.86319       	5.553825e-13
4.89739       	9.432260e-13
4.9316        	1.590084e-12
4.9658        	2.660813e-12
5             	4.419891e-12
5.03425       	7.294294e-12
5.06849       	1.195024e-11
5.10274       	1.943635e-11
5.13699       	3.138488e-11
5.17123       	5.031717e-11
5.20548       	8.009801e-11
5.23973       	1.266074e-10
5.27397       	1.987245e-10
5.30822       	3.097563e-10
5.34247       	4.795003e-10
5.37671       	7.371849e-10
5.41096       	1.125654e-09
5.44521       	1.707232e-09
5.47945       	2.571915e-09
5.5137        	3.848711e-09
5.54795       	5.721171e-09
5.58219       	8.448564e-09
5.61644       	1.239440e-08
5.65068       	1.806466e-08
5.68493       	2.615861e-08
5.71918       	3.763569e-08
5.75342       	5.380255e-08
5.78767       	7.642652e-08
5.82192       	1.078824e-07
5.85616       	1.513379e-07
5.89041       	2.109861e-07
5.92466       	2.923504e-07
5.9589        	4.026466e-07
5.99315       	5.512404e-07
6.0274        	7.502125e-07
6.06164       	1.015030e-06
6.09589       	1.365369e-06
6.13014       	1.826085e-06
6.16438       	2.428376e-06
6.19863       	3.211113e-06
6.23288       	4.222425e-06
6.26712       	5.521479e-06
6.30137       	7.180508e-06
6.33562       	9.287084e-06
6.36986       	1.194674e-05
6.40411       	1.528566e-05
6.43836       	1.945371e-05
6.4726        	2.462762e-05
6.50685       	3.101436e-05
6.5411        	3.885444e-05
6.57534       	4.842549e-05
6.60959       	6.004582e-05
6.64384       	7.407805e-05
6.67808       	9.093142e-05
6.71233       	1.110650e-04
6.74658       	1.349897e-04
6.78082       	1.632700e-04
6.81507       	1.965246e-04
6.84932       	2.354259e-04
6.88356       	2.806991e-04
6.91781       	3.331159e-04
6.95205       	3.934952e-04
6.9863        	4.626976e-04
7.02055       	5.416193e-04
7.05479       	6.311707e-04
7.08904       	7.322827e-04
7.12329       	8.458886e-04
7.15753       	9.729150e-04
7.19178       	1.114260e-03
7.22603       	1.270793e-03
7.26027       	1.443326e-03
7.29452       	1.632594e-03
7.32877       	1.839243e-03
7.36301       	2.063824e-03
7.39726       	2.306766e-03
7.43151       	2.568335e-03
7.46575       	2.848686e-03
7.5           	3.147820e-03
7.53425       	3.465555e-03
7.56849       	3.801542e-03
7.60274       	4.155267e-03
7.63699       	4.526026e-03
7.67123       	4.912952e-03
7.70548       	5.315035e-03
7.73973       	5.731098e-03
7.77397       	6.159814e-03
7.80822       	6.599737e-03
7.84247       	7.049321e-03
7.87671       	7.506911e-03
7.91096       	7.970765e-03
7.94521       	8.439101e-03
7.97945       	8.910072e-03
8.0137        	9.381781e-03
8.04795       	9.852405e-03
8.08219       	1.032012e-02
8.11644       	1.078312e-02
8.15068       	1.123967e-02
8.18493       	1.168811e-02
8.21918       	1.212687e-02
8.25342       	1.255448e-02
8.28767       	1.296955e-02
8.32192       	1.337079e-02
8.35616       	1.375703e-02
8.39041       	1.412718e-02
8.42466       	1.448036e-02
8.4589        	1.481583e-02
8.49315       	1.513296e-02
8.5274        	1.543130e-02
8.56164       	1.571055e-02
8.59589       	1.597059e-02
8.63014       	1.621139e-02
8.66438       	1.643318e-02
8.69863       	1.663626e-02
8.73288       	1.682092e-02
8.76712       	1.698772e-02
8.80137       	1.713734e-02
8.83562       	1.727065e-02
8.86986       	1.738868e-02
8.90411       	1.749269e-02
8.93836       	1.758383e-02
8.9726        	1.766361e-02
9.00685       	1.773356e-02
9.0411        	1.779472e-02
9.07534       	1.784736e-02
9.10959       	1.789246e-02
9.14384       	1.793169e-02
9.17808       	1.796645e-02
9.21233       	1.799742e-02
9.24658       	1.802494e-02
9.28082       	1.804935e-02
9.31507       	1.807078e-02
9.34932       	1.808973e-02
9.38356       	1.810738e-02
9.41781       	1.812474e-02
9.45205       	1.814251e-02
9.4863        	1.816027e-02
9.52055       	1.817767e-02
9.55479       	1.819515e-02
9.58904       	1.821317e-02
9.62329       	1.823155e-02
9.65753       	1.825077e-02
9.69178       	1.827098e-02
9.72603       	1.829244e-02
9.76027       	1.831495e-02
9.79452       	1.833885e-02
9.82877       	1.836385e-02
9.86301       	1.838958e-02
9.89726       	1.841562e-02
9.93151       	1.844207e-02
9.96575       	1.846915e-02
10            	1.849666e-02
10.0342       	1.852476e-02
10.0685       	1.855357e-02
10.1027       	1.858298e-02
10.137        	1.861269e-02
10.1712       	1.864252e-02
10.2055       	1.867220e-02
10.2397       	1.870163e-02
10.274        	1.873070e-02
10.3082       	1.875936e-02
10.3425       	1.878726e-02
10.3767       	1.881421e-02
10.411        	1.884007e-02
10.4452       	1.886468e-02
10.4795       	1.888778e-02
10.5137       	1.890927e-02
10.5479       	1.892896e-02
10.5822       	1.894667e-02
10.6164       	1.896224e-02
10.6507       	1.897543e-02
10.6849       	1.898599e-02
10.7192       	1.899370e-02
10.7534       	1.899842e-02
10.7877       	1.899994e-02
10.8219       	1.899809e-02
10.8562       	1.899278e-02
10.8904       	1.898389e-02
10.9247       	1.897136e-02
10.9589       	1.895505e-02
10.9932       	1.893470e-02
11.0274       	1.891014e-02
11.0616       	1.888130e-02
11.0959       	1.884823e-02
11.1301       	1.881091e-02
11.1644       	1.876942e-02
11.1986       	1.872384e-02
11.2329       	1.867427e-02
11.2671       	1.862084e-02
11.3014       	1.856356e-02
11.3356       	1.850236e-02
11.3699       	1.843732e-02
11.4041       	1.836856e-02
11.4384       	1.829623e-02
11.4726       	1.822048e-02
11.5068       	1.814143e-02
11.5411       	1.805928e-02
11.5753       	1.797397e-02
11.6096       	1.788555e-02
11.6438       	1.779416e-02
11.6781       	1.769987e-02
11.7123       	1.760270e-02
11.7466       	1.750266e-02
11.7808       	1.739963e-02
11.8151       	1.729350e-02
11.8493       	1.718439e-02
11.8836       	1.707244e-02
11.9178       	1.695777e-02
11.9521       	1.684037e-02
11.9863       	1.672034e-02
12.0205       	1.659783e-02
12.0548       	1.647306e-02
12.089        	1.634614e-02
12.1233       	1.621728e-02
12.1575       	1.608649e-02
12.1918       	1.595389e-02
12.226        	1.581958e-02
12.2603       	1.568373e-02
12.2945       	1.554645e-02
12.3288       	1.540791e-02
12.363        	1.526822e-02
12.3973       	1.512739e-02
12.4315       	1.498532e-02
12.4658       	1.484206e-02
12.5          	1.469769e-02
12.5342       	1.455238e-02
12.5685       	1.440632e-02
12.6027       	1.425961e-02
12.637        	1.411229e-02
12.6712       	1.396440e-02
12.7055       	1.381607e-02
12.7397       	1.366742e-02
12.774        	1.351843e-02
12.8082       	1.336914e-02
12.8425       	1.321987e-02
12.8767       	1.307087e-02
12.911        	1.292213e-02
12.9452       	1.277367e-02
12.9795       	1.262557e-02
13.0137       	1.247790e-02
13.0479       	1.233069e-02
13.0822       	1.218403e-02
13.1164       	1.203802e-02
13.1507       	1.189277e-02
13.1849       	1.174837e-02
13.2192       	1.160476e-02
13.2534       	1.146199e-02
13.2877       	1.132021e-02
13.3219       	1.117955e-02
13.3562       	1.104003e-02
13.3904       	1.090170e-02
13.4247       	1.076467e-02
13.4589       	1.062899e-02
13.4932       	1.049471e-02
13.5274       	1.036183e-02
13.5616       	1.023033e-02
13.5959       	1.010024e-02
13.6301       	9.971526e-03
13.6644       	9.844133e-03
13.6986       	9.718040e-03
13.7329       	9.593192e-03
13.7671       	9.469497e-03
13.8014       	9.346969e-03
13.8356       	9.225683e-03
13.8699       	9.105770e-03
13.9041       	8.987291e-03
13.9384       	8.870460e-03
13.9726       	8.755296e-03
14.0068       	8.641762e-03
14.0411       	8.530008e-03
14.0753       	8.420271e-03
14.1096       	8.312504e-03
14.1438       	8.206765e-03
14.1781       	8.103081e-03
14.2123       	8.001583e-03
14.2466       	7.902498e-03
14.2808       	7.805829e-03
14.3151       	7.711622e-03
14.3493       	7.619839e-03
14.3836       	7.530407e-03
14.4178       	7.443295e-03
14.4521       	7.358503e-03
14.4863       	7.275997e-03
14.5205       	7.195812e-03
14.5548       	7.118024e-03
14.589        	7.042470e-03
14.6233       	6.969050e-03
14.6575       	6.897806e-03
14.6918       	6.828583e-03
14.726        	6.761194e-03
14.7603       	6.695521e-03
14.7945       	6.631266e-03
14.8288       	6.568262e-03
14.863        	6.506559e-03
14.8973       	6.446055e-03
14.9315       	6.386672e-03
14.9658       	6.328305e-03
15            	6.270910e-03
15.0342       	6.214408e-03
15.0685       	6.158792e-03
15.1027       	6.104058e-03
15.137        	6.050176e-03
15.1712       	5.997176e-03
15.2055       	5.945026e-03
15.2397       	5.893707e-03
15.274        	5.843280e-03
15.3082       	5.793694e-03
15.3425       	5.744897e-03
15.3767       	5.696884e-03
15.411        	5.649623e-03
15.4452       	5.603105e-03
15.4795       	5.557344e-03
15.5137       	5.512390e-03
15.5479       	5.468166e-03
15.5822       	5.424689e-03
15.6164       	5.381913e-03
15.6507       	5.339832e-03
15.6849       	5.298432e-03
15.7192       	5.257717e-03
15.7534       	5.217678e-03
15.7877       	5.178301e-03
15.8219       	5.139567e-03
15.8562       	5.101523e-03
15.8904       	5.064138e-03
15.9247       	5.027383e-03
15.9589       	4.991211e-03
15.9932       	4.955582e-03
16.0274       	4.920421e-03
16.0616       	4.885706e-03
16.0959       	4.851423e-03
16.1301       	4.817561e-03
16.1644       	4.784120e-03
16.1986       	4.751091e-03
16.2329       	4.718469e-03
16.2671       	4.686250e-03
16.3014       	4.654429e-03
16.3356       	4.623002e-03
16.3699       	4.591962e-03
16.4041       	4.561311e-03
16.4384       	4.531039e-03
16.4726       	4.501133e-03
16.5068       	4.471569e-03
16.5411       	4.442403e-03
16.5753       	4.413601e-03
16.6096       	4.385098e-03
16.6438       	4.356852e-03
16.6781       	4.328832e-03
16.7123       	4.301003e-03
16.7466       	4.273346e-03
16.7808       	4.245845e-03
16.8151       	4.218490e-03
16.8493       	4.191277e-03
16.8836       	4.164204e-03
16.9178       	4.137269e-03
16.9521       	4.110476e-03
16.9863       	4.083827e-03
17.0205       	4.057328e-03
17.0548       	4.030984e-03
17.089        	4.004799e-03
17.1233       	3.978779e-03
17.1575       	3.952933e-03
17.1918       	3.927262e-03
17.226        	3.901766e-03
17.2603       	3.876446e-03
17.2945       	3.851318e-03
17.3288       	3.826384e-03
17.363        	3.801637e-03
17.3973       	3.777080e-03
17.4315       	3.752706e-03
17.4658       	3.728478e-03
17.5          	3.704369e-03
17.5342       	3.680356e-03
17.5685       	3.656429e-03
17.6027       	3.632577e-03
17.637        	3.608794e-03
17.6712       	3.585076e-03
17.7055       	3.561418e-03
17.7397       	3.537817e-03
17.774        	3.514273e-03
17.8082       	3.490785e-03
17.8425       	3.467354e-03
17.8767       	3.443978e-03
17.911        	3.420659e-03
17.9452       	3.397399e-03
17.9795       	3.374195e-03
18.0137       	3.351038e-03
18.0479       	3.327942e-03
18.0822       	3.304913e-03
18.1164       	3.281933e-03
18.1507       	3.259007e-03
18.1849       	3.236097e-03
18.2192       	3.213203e-03
18.2534       	3.190327e-03
18.2877       	3.167476e-03
18.3219       	3.144667e-03
18.3562       	3.121877e-03
18.3904       	3.099075e-03
18.4247       	3.076269e-03
18.4589       	3.053499e-03
18.4932       	3.030764e-03
18.5274       	3.008057e-03
18.5616       	2.985336e-03
18.5959       	2.962596e-03
18.6301       	2.939850e-03
18.6644       	2.917110e-03
18.6986       	2.894380e-03
18.7329       	2.871672e-03
18.7671       	2.848976e-03
18.8014       	2.826297e-03
18.8356       	2.803649e-03
18.8699       	2.781057e-03
18.9041       	2.758539e-03
18.9384       	2.736122e-03
18.9726       	2.713826e-03
19.0068       	2.691596e-03
19.0411       	2.669436e-03
19.0753       	2.647356e-03
19.1096       	2.625317e-03
19.1438       	2.603362e-03
19.1781       	2.581514e-03
19.2123       	2.559788e-03
19.2466       	2.538202e-03
19.2808       	2.516771e-03
19.3151       	2.495505e-03
19.3493       	2.474413e-03
19.3836       	2.453503e-03
19.4178       	2.432778e-03
19.4521       	2.412246e-03
19.4863       	2.391917e-03
19.5205       	2.371799e-03
19.5548       	2.351896e-03
19.589        	2.332211e-03
19.6233       	2.312710e-03
19.6575       	2.293391e-03
19.6918       	2.274276e-03
19.726        	2.255366e-03
19.7603       	2.236610e-03
19.7945       	2.218014e-03
19.8288       	2.199587e-03
19.863        	2.181335e-03
19.8973       	2.163268e-03
19.9315       	2.145393e-03
19.9658       	2.127716e-03
20            	2.110245e-03
20.0342       	2.092985e-03
20.0685       	2.075943e-03
20.1027       	2.059125e-03
20.137        	2.042539e-03
20.1712       	2.026190e-03
20.2055       	2.010079e-03
20.2397       	1.994205e-03
20.274        	1.978567e-03
20.3082       	1.963155e-03
20.3425       	1.947952e-03
20.3767       	1.932953e-03
20.411        	1.918169e-03
20.4452       	1.903586e-03
20.4795       	1.889192e-03
20.5137       	1.874888e-03
20.5479       	1.860667e-03
20.5822       	1.846535e-03
20.6164       	1.832501e-03
20.6507       	1.818573e-03
20.6849       	1.804762e-03
20.7192       	1.791078e-03
20.7534       	1.777530e-03
20.7877       	1.764126e-03
20.8219       	1.750873e-03
20.8562       	1.737781e-03
20.8904       	1.724856e-03
20.9247       	1.712100e-03
20.9589       	1.699516e-03
20.9932       	1.687119e-03
21.0274       	1.674918e-03
21.0616       	1.662901e-03
21.0959       	1.651056e-03
21.1301       	1.639375e-03
21.1644       	1.627854e-03
21.1986       	1.616494e-03
21.2329       	1.605293e-03
21.2671       	1.594242e-03
21.3014       	1.583335e-03
21.3356       	1.572566e-03
21.3699       	1.561933e-03
21.4041       	1.551435e-03
21.4384       	1.541063e-03
21.4726       	1.530779e-03
21.5068       	1.520585e-03
21.5411       	1.510489e-03
21.5753       	1.500495e-03
21.6096       	1.490601e-03
21.6438       	1.480806e-03
21.6781       	1.471113e-03
21.7123       	1.461523e-03
21.7466       	1.452040e-03
21.7808       	1.442659e-03
21.8151       	1.433327e-03
21.8493       	1.424053e-03
21.8836       	1.414851e-03
21.9178       	1.405725e-03
21.9521       	1.396679e-03
21.9863       	1.387718e-03
22.0205       	1.378848e-03
22.0548       	1.370072e-03
22.089        	1.361394e-03
22.1233       	1.352817e-03
22.1575       	1.344344e-03
22.1918       	1.335976e-03
22.226        	1.327716e-03
22.2603       	1.319565e-03
22.2945       	1.311523e-03
22.3288       	1.303587e-03
22.363        	1.295753e-03
22.3973       	1.288020e-03
22.4315       	1.280383e-03
22.4658       	1.272842e-03
22.5          	1.265389e-03
22.5342       	1.257997e-03
22.5685       	1.250667e-03
22.6027       	1.243397e-03
22.637        	1.236184e-03
22.6712       	1.229027e-03
22.7055       	1.221927e-03
22.7397       	1.214883e-03
22.774        	1.207897e-03
22.8082       	1.200936e-03
22.8425       	1.194001e-03
22.8767       	1.187097e-03
22.911        	1.180229e-03
22.9452       	1.173403e-03
22.9795       	1.166624e-03
23.0137       	1.159896e-03
23.0479       	1.153224e-03
23.0822       	1.146610e-03
23.1164       	1.140067e-03
23.1507       	1.133599e-03
23.1849       	1.127203e-03
23.2192       	1.120878e-03
23.2534       	1.114624e-03
23.2877       	1.108442e-03
23.3219       	1.102334e-03
23.3562       	1.096304e-03
23.3904       	1.090353e-03
23.4247       	1.084482e-03
23.4589       	1.078692e-03
23.4932       	1.072984e-03
23.5274       	1.067355e-03
23.5616       	1.061817e-03
23.5959       	1.056365e-03
23.6301       	1.050993e-03
23.6644       	1.045695e-03
23.6986       	1.040469e-03
23.7329       	1.035309e-03
23.7671       	1.030215e-03
23.8014       	1.025183e-03
23.8356       	1.020212e-03
23.8699       	1.015299e-03
23.9041       	1.010444e-03
23.9384       	1.005644e-03
23.9726       	1.000900e-03
24.0068       	9.962076e-04
24.0411       	9.915631e-04
24.0753       	9.869633e-04
24.1096       	9.824066e-04
24.1438       	9.778920e-04
24.1781       	9.734190e-04
24.2123       	9.689724e-04
24.2466       	9.645401e-04
24.2808       	9.601246e-04
24.3151       	9.557290e-04
24.3493       	9.513559e-04
24.3836       	9.470079e-04
24.4178       	9.426867e-04
24.4521       	9.383946e-04
24.4863       	9.341331e-04
24.5205       	9.299038e-04
24.5548       	9.257049e-04
24.589        	9.215389e-04
24.6233       	9.174115e-04
24.6575       	9.133258e-04
24.6918       	9.092808e-04
24.726        	9.052745e-04
24.7603       	9.013056e-04
24.7945       	8.973731e-04
24.8288       	8.934769e-04
24.863        	8.896145e-04
24.8973       	8.857541e-04
24.9315       	8.818955e-04
24.9658       	8.780422e-04
25            	8.741982e-04
25.0342       	8.703666e-04
25.0685       	8.665508e-04
25.1027       	8.627535e-04
25.137        	8.589771e-04
25.1712       	8.552238e-04
25.2055       	8.514959e-04
25.2397       	8.477942e-04
25.274        	8.441194e-04
25.3082       	8.404726e-04
25.3425       	8.368554e-04
25.3767       	8.332683e-04
25.411        	8.297113e-04
25.4452       	8.261700e-04
25.4795       	8.226488e-04
25.5137       	8.191489e-04
25.5479       	8.156682e-04
25.5822       	8.122055e-04
25.6164       	8.087608e-04
25.6507       	8.053338e-04
25.6849       	8.019245e-04
25.7192       	7.985339e-04
25.7534       	7.951631e-04
25.7877       	7.918131e-04
25.8219       	7.884852e-04
25.8562       	7.851808e-04
25.8904       	7.819009e-04
25.9247       	7.786466e-04
25.9589       	7.754191e-04
25.9932       	7.722191e-04
26.0274       	7.690479e-04
26.0616       	7.659065e-04
26.0959       	7.627955e-04
26.1301       	7.597153e-04
26.1644       	7.566660e-04
26.1986       	7.536522e-04
26.2329       	7.506728e-04
26.2671       	7.477253e-04
26.3014       	7.448072e-04
26.3356       	7.419176e-04
26.3699       	7.390556e-04
26.4041       	7.362206e-04
26.4384       	7.334131e-04
26.4726       	7.306329e-04
26.5068       	7.278792e-04
26.5411       	7.251515e-04
26.5753       	7.224495e-04
26.6096       	7.197733e-04
26.6438       	7.171213e-04
26.6781       	7.144916e-04
26.7123       	7.118861e-04
26.7466       	7.093062e-04
26.7808       	7.067524e-04
26.8151       	7.042251e-04
26.8493       	7.017240e-04
26.8836       	6.992485e-04
26.9178       	6.967978e-04
26.9521       	6.943705e-04
26.9863       	6.919639e-04
27.0205       	6.895748e-04
27.0548       	6.872002e-04
27.089        	6.848375e-04
27.1233       	6.824847e-04
27.1575       	6.801398e-04
27.1918       	6.778009e-04
27.226        	6.754595e-04
27.2603       	6.731092e-04
27.2945       	6.707526e-04
27.3288       	6.683926e-04
27.363        	6.660310e-04
27.3973       	6.636694e-04
27.4315       	6.613094e-04
27.4658       	6.589528e-04
27.5          	6.566014e-04
27.5342       	6.542570e-04
27.5685       	6.519207e-04
27.6027       	6.495922e-04
27.637        	6.472743e-04
27.6712       	6.449692e-04
27.7055       	6.426790e-04
27.7397       	6.404054e-04
27.774        	6.381496e-04
27.8082       	6.359119e-04
27.8425       	6.336927e-04
27.8767       	6.314921e-04
27.911        	6.293100e-04
27.9452       	6.271457e-04
27.9795       	6.249988e-04
28.0137       	6.228683e-04
28.0479       	6.207524e-04
28.0822       	6.186488e-04
28.1164       	6.165560e-04
28.1507       	6.144727e-04
28.1849       	6.123978e-04
28.2192       	6.103305e-04
28.2534       	6.082628e-04
28.2877       	6.061936e-04
28.3219       	6.041243e-04
28.3562       	6.020564e-04
28.3904       	5.999911e-04
28.4247       	5.979297e-04
28.4589       	5.958733e-04
28.4932       	5.938230e-04
28.5274       	5.917798e-04
28.5616       	5.897446e-04
28.5959       	5.877174e-04
28.6301       	5.856985e-04
28.6644       	5.836892e-04
28.6986       	5.816916e-04
28.7329       	5.797040e-04
28.7671       	5.777247e-04
28.8014       	5.757523e-04
28.8356       	5.737855e-04
28.8699       	5.718234e-04
28.9041       	5.698652e-04
28.9384       	5.679101e-04
28.9726       	5.659576e-04
29.0068       	5.640073e-04
29.0411       	5.620592e-04
29.0753       	5.601132e-04
29.1096       	5.581690e-04
29.1438       	5.562269e-04
29.1781       	5.542869e-04
29.2123       	5.523498e-04
29.2466       	5.504159e-04
29.2808       	5.484834e-04
29.3151       	5.465537e-04
29.3493       	5.446284e-04
29.3836       	5.427090e-04
29.4178       	5.407966e-04
29.4521       	5.388922e-04
29.4863       	5.369966e-04
29.5205       	5.351104e-04
29.5548       	5.332345e-04
29.589        	5.313689e-04
29.6233       	5.295140e-04
29.6575       	5.276695e-04
29.6918       	5.258361e-04
29.726        	5.240140e-04
29.7603       	5.222033e-04
29.7945       	5.204053e-04
29.8288       	5.186197e-04
29.863        	5.168458e-04
29.8973       	5.150827e-04
29.9315       	5.133293e-04
29.9658       	5.115848e-04
30            	5.098484e-04
30.0342       	5.081192e-04
30.0685       	5.063963e-04
30.1027       	5.046791e-04
30.137        	5.029666e-04
30.1712       	5.012577e-04
30.2055       	4.995515e-04
30.2397       	4.978470e-04
30.274        	4.961432e-04
30.3082       	4.944387e-04
30.3425       	4.927320e-04
30.3767       	4.910222e-04
30.411        	4.893084e-04
30.4452       	4.875896e-04
30.4795       	4.858643e-04
30.5137       	4.841308e-04
30.5479       	4.823871e-04
30.5822       	4.806332e-04
30.6164       	4.788695e-04
30.6507       	4.770962e-04
30.6849       	4.753099e-04
30.7192       	4.735093e-04
30.7534       	4.716975e-04
30.7877       	4.698790e-04
30.8219       	4.680577e-04
30.8562       	4.662359e-04
30.8904       	4.644152e-04
30.9247       	4.625973e-04
30.9589       	4.607840e-04
30.9932       	4.589766e-04
31.0274       	4.571765e-04
31.0616       	4.553848e-04
31.0959       	4.536025e-04
31.1301       	4.518310e-04
31.1644       	4.500713e-04
31.1986       	4.483235e-04
31.2329       	4.465877e-04
31.2671       	4.448639e-04
31.3014       	4.431520e-04
31.3356       	4.414519e-04
31.3699       	4.397636e-04
31.4041       	4.380868e-04
31.4384       	4.364213e-04
31.4726       	4.347671e-04
31.5068       	4.331239e-04
31.5411       	4.314914e-04
31.5753       	4.298696e-04
31.6096       	4.282579e-04
31.6438       	4.266563e-04
31.6781       	4.250642e-04
31.7123       	4.234816e-04
31.7466       	4.219081e-04
31.7808       	4.203431e-04
31.8151       	4.187861e-04
31.8493       	4.172367e-04
31.8836       	4.156945e-04
31.9178       	4.141591e-04
31.9521       	4.126300e-04
31.9863       	4.111066e-04
32.0205       	4.095885e-04
32.0548       	4.080750e-04
32.089        	4.065652e-04
32.1233       	4.050585e-04
32.1575       	4.035543e-04
32.1918       	4.020522e-04
32.226        	4.005521e-04
32.2603       	3.990512e-04
32.2945       	3.975493e-04
32.3288       	3.960468e-04
32.363        	3.945444e-04
32.3973       	3.930425e-04
32.4315       	3.915417e-04
32.4658       	3.900421e-04
32.5          	3.885444e-04
32.5342       	3.870488e-04
32.5685       	3.855556e-04
32.6027       	3.840651e-04
32.637        	3.825776e-04
32.6712       	3.810932e-04
32.7055       	3.796123e-04
32.7397       	3.781350e-04
32.774        	3.766614e-04
32.8082       	3.751919e-04
32.8425       	3.737265e-04
32.8767       	3.722655e-04
32.911        	3.708090e-04
32.9452       	3.693573e-04
32.9795       	3.679105e-04
33.0137       	3.664689e-04
33.0479       	3.650324e-04
33.0822       	3.636012e-04
33.1164       	3.621753e-04
33.1507       	3.607549e-04
33.1849       	3.593398e-04
33.2192       	3.579303e-04
33.2534       	3.565262e-04
33.2877       	3.551277e-04
33.3219       	3.537348e-04
33.3562       	3.523476e-04
33.3904       	3.509661e-04
33.4247       	3.495903e-04
33.4589       	3.482204e-04
33.4932       	3.468565e-04
33.5274       	3.454990e-04
33.5616       	3.441475e-04
33.5959       	3.428020e-04
33.6301       	3.414627e-04
33.6644       	3.401300e-04
33.6986       	3.388040e-04
33.7329       	3.374849e-04
33.7671       	3.361729e-04
33.8014       	3.348682e-04
33.8356       	3.335708e-04
33.8699       	3.322807e-04
33.9041       	3.309979e-04
33.9384       	3.297223e-04
33.9726       	3.284538e-04
34.0068       	3.271924e-04
34.0411       	3.259378e-04
34.0753       	3.246900e-04
34.1096       	3.234488e-04
34.1438       	3.222141e-04
34.1781       	3.209856e-04
34.2123       	3.197631e-04
34.2466       	3.185465e-04
34.2808       	3.173356e-04
34.3151       	3.161300e-04
34.3493       	3.149296e-04
34.3836       	3.137341e-04
34.4178       	3.125433e-04
34.4521       	3.113569e-04
34.4863       	3.101747e-04
34.5205       	3.089964e-04
34.5548       	3.078219e-04
34.589        	3.066509e-04
34.6233       	3.054833e-04
34.6575       	3.043188e-04
34.6918       	3.031575e-04
34.726        	3.019992e-04