#         Time       outlet
      1.2e-06            0
     2.64e-06            0
    4.368e-06            0
   6.4416e-06            0
  8.92992e-06            0
  1.19159e-05            0
  1.54991e-05            0
  1.97989e-05            0
  2.49587e-05            0
  3.11504e-05            0
  3.85805e-05            0
  4.74965e-05            0
  5.81958e-05            0
   7.1035e-05            0
   8.6442e-05            0
   0.00010493            0
  0.000127116            0
   0.00015374            0
  0.000185688            0
  0.000224025            0
   0.00027003            0
  0.000325236            0
  0.000391483            0
   0.00047098            0
  0.000566376            0
   0.00068085            0
  0.000818221            0
  0.000983063            0
   0.00118087            0
   0.00141824            0
    0.0017031            0
   0.00204491            0
   0.00245508            0
    0.0029473            0
   0.00353797            0
   0.00424679            0
   0.00509742            0
   0.00611825 2.28577e-318
   0.00734314-3.50844e-300
   0.00881286 2.34249e-283
    0.0105765-1.77734e-265
    0.0126925-5.58452e-248
    0.0152319 1.17934e-229
    0.0182788-8.83514e-213
    0.0219337 4.42598e-196
    0.0263197-2.26394e-179
    0.0315829-2.34837e-162
     0.037896-2.59594e-147
    0.0454717  9.3773e-132
    0.0545626 1.77424e-117
    0.0654797 3.36146e-104
    0.0785686  6.95731e-92
     0.094292  1.18816e-80
      0.11316  1.68048e-70
     0.135784  1.60546e-61
     0.162077  1.54324e-54
     0.192127  3.96908e-49
     0.225985  7.18021e-45
     0.263576  1.19798e-41
     0.300292 -1.90325e-40
     0.336724 -1.91162e-39
     0.372873 -8.47071e-39
     0.408742 -2.36319e-38
     0.444894 -2.76527e-38
     0.481046  1.73241e-37
     0.517489   1.4997e-36
     0.554231  7.43658e-36
     0.591279  2.94028e-35
     0.628641  1.04508e-34
     0.666325  3.73149e-34
     0.704009  1.57094e-33
     0.742027  7.52569e-33
     0.780044  3.84899e-32
     0.818408  1.95887e-31
     0.856771  9.58249e-31
     0.895134  4.41386e-30
     0.933497  1.90782e-29
     0.971861  7.78139e-29
      1.01022  3.01625e-28
      1.04859  1.11819e-27
      1.08695  3.98636e-27
      1.12531  1.37267e-26
      1.16368  4.58514e-26
      1.20204  1.49058e-25
       1.2404  4.72791e-25
      1.27877  1.46699e-24
      1.31713  4.46341e-24
      1.35549  1.33324e-23
      1.39386  3.91475e-23
      1.43222  1.13052e-22
      1.47058  3.21193e-22
      1.50895  8.97753e-22
      1.54731  2.46883e-21
      1.58567  6.67883e-21
      1.62404   1.7774e-20
       1.6624  4.65265e-20
      1.70076  1.19828e-19
      1.73913  3.03705e-19
      1.77749  7.57921e-19
      1.81585  1.86429e-18
      1.85421  4.52555e-18
      1.89258  1.08575e-17
      1.93094  2.57853e-17
       1.9693  6.07102e-17
      2.00767  1.41941e-16
      2.04603  3.30185e-16
      2.08439  7.64095e-16
      2.12276  1.75848e-15
      2.16112   4.0302e-15
      2.19948  9.19932e-15
      2.23785  2.09009e-14
      2.27621  4.72105e-14
      2.31457  1.05879e-13
      2.35294  2.35423e-13
       2.3913  5.18262e-13
      2.42966  1.12808e-12
      2.46803  2.42489e-12
      2.50639  5.14345e-12
      2.54475  1.07576e-11
      2.58312  2.21742e-11
      2.62148  4.50253e-11
      2.65984  9.00423e-11
      2.69821  1.77332e-10
      2.73657  3.43871e-10
      2.77493  6.56621e-10
       2.8133  1.23477e-09
      2.85166  2.28695e-09
      2.89002  4.17253e-09
      2.92839  7.50046e-09
      2.96675  1.32865e-08
      3.00511  2.31988e-08
      3.04348  3.99332e-08
      3.08184  6.77825e-08
       3.1202  1.13473e-07
      3.15856  1.87408e-07
      3.19693  3.05394e-07
      3.23529   4.9117e-07
      3.27365  7.79797e-07
      3.31202  1.22238e-06
      3.35038  1.89224e-06
      3.38874   2.8934e-06
      3.42711  4.37093e-06
      3.46547   6.5249e-06
      3.50383  9.62697e-06
       3.5422  1.40414e-05
      3.58056  2.02495e-05
      3.61892  2.88768e-05
      3.65729  4.07293e-05
      3.69565  5.68312e-05
      3.73401  7.84588e-05
      3.77238  0.000107187
      3.81074  0.000144929
       3.8491  0.000193978
      3.88747  0.000257036
      3.92583  0.000337258
      3.96419  0.000438241
      4.00256  0.000564041
      4.04092  0.000719168
      4.07928  0.000908496
      4.11765   0.00113723
      4.15601   0.00141084
      4.19437    0.0017349
      4.23274   0.00211501
       4.2711   0.00255647
      4.30946   0.00306428
      4.34783   0.00364281
      4.38619   0.00429554
      4.42455   0.00502509
      4.46291   0.00583263
      4.50128   0.00671809
      4.53964   0.00767971
        4.578   0.00871423
      4.61637   0.00981674
      4.65473    0.0109801
      4.69309    0.0121963
      4.73146    0.0134556
      4.76982    0.0147471
      4.80818    0.0160587
      4.84655    0.0173776
      4.88491    0.0186909
      4.92327    0.0199855
      4.96164    0.0212486
            5    0.0224676
      5.03846    0.0236341
      5.07692    0.0247341
      5.11538    0.0257585
      5.15385    0.0266991
      5.19231    0.0275494
      5.23077    0.0283035
      5.26923     0.028957
      5.30769    0.0295067
      5.34615    0.0299521
      5.38462    0.0302966
      5.42308    0.0305441
      5.46154     0.030699
          5.5    0.0307679
      5.53846    0.0307587
      5.57692    0.0306754
      5.61538    0.0305253
      5.65385    0.0303186
      5.69231     0.030064
      5.73077    0.0297707
      5.76923    0.0294437
      5.80769     0.029089
      5.84615    0.0287163
      5.88462    0.0283329
      5.92308    0.0279428
      5.96154    0.0275488
            6    0.0271563
      6.03846    0.0267696
      6.07692    0.0263924
      6.11538    0.0260285
      6.15385    0.0256801
      6.19231     0.025346
      6.23077    0.0250288
      6.26923    0.0247284
      6.30769    0.0244444
      6.34615    0.0241758
      6.38462    0.0239228
      6.42308    0.0236863
      6.46154    0.0234652
          6.5     0.023259
      6.53846    0.0230657
      6.57692    0.0228853
      6.61538    0.0227171
      6.65385    0.0225597
      6.69231    0.0224103
      6.73077    0.0222676
      6.76923    0.0221296
      6.80769    0.0219954
      6.84615    0.0218646
      6.88462    0.0217368
      6.92308    0.0216114
      6.96154    0.0214878
            7    0.0213651
      7.03846    0.0212439
      7.07692     0.021123
      7.11538     0.021002
      7.15385    0.0208808
      7.19231    0.0207578
      7.23077     0.020633
      7.26923    0.0205054
      7.30769    0.0203752
      7.34615    0.0202422
      7.38462    0.0201067
      7.42308    0.0199682
      7.46154    0.0198265
          7.5    0.0196816
      7.53846    0.0195337
      7.57692    0.0193837
      7.61538     0.019232
      7.65385    0.0190789
      7.69231    0.0189242
      7.73077    0.0187665
      7.76923    0.0186051
      7.80769    0.0184402
      7.84615    0.0182715
      7.88462    0.0180985
      7.92308    0.0179206
      7.96154    0.0177376
            8    0.0175508
      8.03846      0.01736
      8.07692    0.0171661
      8.11538    0.0169686
      8.15385    0.0167679
      8.19231    0.0165645
      8.23077    0.0163585
      8.26923    0.0161503
      8.30769    0.0159403
      8.34615    0.0157282
      8.38462    0.0155143
      8.42308    0.0152985
      8.46154    0.0150809
          8.5    0.0148612
      8.53846      0.01464
      8.57692    0.0144178
      8.61538    0.0141939
      8.65385    0.0139684
      8.69231    0.0137413
      8.73077    0.0135126
      8.76923    0.0132826
      8.80769    0.0130516
      8.84615    0.0128199
      8.88462    0.0125873
      8.92308    0.0123539
      8.96154    0.0121197
            9     0.011885
      9.03846    0.0116505
      9.07692    0.0114159
      9.11538    0.0111819
      9.15385    0.0109487
      9.19231    0.0107167
      9.23077     0.010486
      9.26923    0.0102566
      9.30769    0.0100283
      9.34615   0.00980118
      9.38462   0.00957589
      9.42308   0.00935285
      9.46154   0.00913203
          9.5   0.00891371
      9.53846   0.00869776
      9.57692   0.00848454
      9.61538    0.0082739
      9.65385   0.00806548
      9.69231   0.00785882
      9.73077   0.00765441
      9.76923   0.00745291
      9.80769   0.00725452
      9.84615   0.00705971
      9.88462   0.00686921
      9.92308   0.00668352
      9.96154   0.00650309
           10    0.0063282
      10.0385   0.00615887
      10.0769   0.00599476
      10.1154   0.00583625
      10.1538   0.00568317
      10.1923   0.00553537
      10.2308   0.00539274
      10.2692   0.00525509
      10.3077   0.00512211
      10.3462    0.0049938
      10.3846   0.00486986
      10.4231   0.00475047
      10.4615    0.0046353
         10.5   0.00452458
      10.5385   0.00441826
      10.5769   0.00431635
      10.6154   0.00421879
      10.6538   0.00412543
      10.6923   0.00403617
      10.7308   0.00395088
      10.7692   0.00386951
      10.8077   0.00379218
      10.8462   0.00371897
      10.8846    0.0036496
      10.9231   0.00358402
      10.9615   0.00352253
           11   0.00346513
      11.0385   0.00341174
      11.0769   0.00336257
      11.1154   0.00331754
      11.1538   0.00327663
      11.1923   0.00323972
      11.2308   0.00320679
      11.2692   0.00317788
      11.3077   0.00315301
      11.3462   0.00313183
      11.3846   0.00311393
      11.4231   0.00309897
      11.4615   0.00308657
         11.5   0.00307639
      11.5385    0.0030682
      11.5769   0.00306203
      11.6154   0.00305758
      11.6538   0.00305455
      11.6923   0.00305281
      11.7308   0.00305231
      11.7692   0.00305295
      11.8077   0.00305457
      11.8462    0.0030571
      11.8846   0.00306047
      11.9231   0.00306448
      11.9615   0.00306905
           12     0.003074
      12.0385    0.0030792
      12.0769   0.00308455
      12.1154      0.00309
      12.1538    0.0030956
      12.1923   0.00310121
      12.2308   0.00310674
      12.2692   0.00311214
      12.3077    0.0031174
      12.3462   0.00312246
      12.3846   0.00312735
      12.4231   0.00313201
      12.4615   0.00313657
         12.5   0.00314097
      12.5385   0.00314507
      12.5769   0.00314887
      12.6154   0.00315239
      12.6538   0.00315561
      12.6923   0.00315855
      12.7308   0.00316122
      12.7692   0.00316364
      12.8077   0.00316579
      12.8462   0.00316762
      12.8846   0.00316909
      12.9231   0.00317019
      12.9615   0.00317093
           13   0.00317131
      13.0385   0.00317136
      13.0769   0.00317105
      13.1154   0.00317031
      13.1538   0.00316913
      13.1923   0.00316753
      13.2308   0.00316548
      13.2692   0.00316297
      13.3077    0.0031601
      13.3462   0.00315681
      13.3846   0.00315307
      13.4231    0.0031489
      13.4615   0.00314427
         13.5    0.0031392
      13.5385   0.00313368
      13.5769   0.00312776
      13.6154   0.00312142
      13.6538   0.00311461
      13.6923   0.00310745
      13.7308   0.00309992
      13.7692   0.00309202
      13.8077   0.00308371
      13.8462   0.00307501
      13.8846   0.00306589
      13.9231    0.0030564
      13.9615   0.00304655
           14   0.00303635
      14.0385   0.00302578
      14.0769   0.00301484
      14.1154   0.00300357
      14.1538   0.00299197
      14.1923   0.00298001
      14.2308    0.0029678
      14.2692   0.00295533
      14.3077   0.00294261
      14.3462   0.00292967
      14.3846   0.00291652
      14.4231   0.00290322
      14.4615   0.00288973
         14.5   0.00287603
      14.5385    0.0028621
      14.5769   0.00284802
      14.6154   0.00283374
      14.6538   0.00281926
      14.6923   0.00280454
      14.7308   0.00278962
      14.7692   0.00277451
      14.8077    0.0027592
      14.8462   0.00274372
      14.8846   0.00272811
      14.9231   0.00271229
      14.9615   0.00269636
           15   0.00268035
      15.0385    0.0026643
      15.0769    0.0026482
      15.1154   0.00263207
      15.1538   0.00261592
      15.1923   0.00259974
      15.2308    0.0025836
      15.2692   0.00256742
      15.3077   0.00255121
      15.3462   0.00253496
      15.3846   0.00251864
      15.4231    0.0025023
      15.4615   0.00248596
         15.5   0.00246964
      15.5385    0.0024533
      15.5769   0.00243702
      15.6154    0.0024207
      15.6538   0.00240444
      15.6923   0.00238823
      15.7308   0.00237213
      15.7692   0.00235613
      15.8077   0.00234025
      15.8462   0.00232452
      15.8846   0.00230891
      15.9231   0.00229343
      15.9615    0.0022781
           16   0.00226291
      16.0385   0.00224792
      16.0769   0.00223305
      16.1154   0.00221838
      16.1538   0.00220389
      16.1923    0.0021896
      16.2308   0.00217553
      16.2692   0.00216165
      16.3077   0.00214801
      16.3462   0.00213456
      16.3846   0.00212134
      16.4231    0.0021083
      16.4615   0.00209533
         16.5   0.00208248
      16.5385   0.00206972
      16.5769   0.00205705
      16.6154   0.00204447
      16.6538   0.00203199
      16.6923   0.00201961
      16.7308   0.00200734
      16.7692   0.00199517
      16.8077   0.00198307
      16.8462   0.00197105
      16.8846   0.00195913
      16.9231   0.00194732
      16.9615   0.00193564
           17    0.0019241
      17.0385   0.00191272
      17.0769   0.00190147
      17.1154   0.00189036
      17.1538    0.0018794
      17.1923   0.00186857
      17.2308   0.00185783
      17.2692    0.0018472
      17.3077   0.00183667
      17.3462   0.00182629
      17.3846   0.00181602
      17.4231   0.00180586
      17.4615   0.00179576
         17.5   0.00178567
      17.5385   0.00177561
      17.5769   0.00176554
      17.6154   0.00175548
      17.6538   0.00174545
      17.6923   0.00173545
      17.7308   0.00172546
      17.7692   0.00171548
      17.8077   0.00170554
      17.8462   0.00169563
      17.8846   0.00168575
      17.9231   0.00167588
      17.9615   0.00166605
           18   0.00165627
      18.0385   0.00164653
      18.0769   0.00163687
      18.1154   0.00162729
      18.1538   0.00161778
      18.1923   0.00160835
      18.2308   0.00159903
      18.2692   0.00158977
      18.3077   0.00158061
      18.3462   0.00157154
      18.3846   0.00156255
      18.4231   0.00155368
      18.4615   0.00154484
         18.5   0.00153603
      18.5385   0.00152724
      18.5769   0.00151846
      18.6154   0.00150968
      18.6538   0.00150093
      18.6923   0.00149219
      18.7308   0.00148348
      18.7692   0.00147474
      18.8077   0.00146601
      18.8462   0.00145727
      18.8846   0.00144851
      18.9231   0.00143973
      18.9615   0.00143092
           19   0.00142209
      19.0385   0.00141326
      19.0769   0.00140442
      19.1154   0.00139559
      19.1538   0.00138676
      19.1923   0.00137793
      19.2308   0.00136913
      19.2692   0.00136034
      19.3077   0.00135157
      19.3462   0.00134283
      19.3846   0.00133411
      19.4231   0.00132542
      19.4615   0.00131675
         19.5   0.00130809
      19.5385   0.00129945
      19.5769   0.00129082
      19.6154   0.00128221
      19.6538   0.00127356
      19.6923   0.00126491
      19.7308   0.00125625
      19.7692   0.00124759
      19.8077   0.00123894
      19.8462   0.00123029
      19.8846   0.00122164
      19.9231   0.00121302
      19.9615   0.00120441
           20   0.00119582
      20.0385   0.00118725
      20.0769    0.0011787
      20.1154   0.00117016
      20.1538   0.00116163
      20.1923   0.00115312
      20.2308   0.00114463
      20.2692   0.00113618
      20.3077   0.00112774
      20.3462   0.00111934
      20.3846   0.00111098
      20.4231   0.00110267
      20.4615   0.00109441
         20.5   0.00108619
      20.5385   0.00107803
      20.5769   0.00106993
      20.6154   0.00106188
      20.6538   0.00105389
      20.6923   0.00104597
      20.7308   0.00103811
      20.7692   0.00103031
      20.8077   0.00102259
      20.8462   0.00101492
      20.8846    0.0010073
      20.9231  0.000999742
      20.9615  0.000992235
           21  0.000984777
      21.0385  0.000977359
      21.0769  0.000969984
      21.1154  0.000962639
      21.1538  0.000955322
      21.1923  0.000948044
      21.2308  0.000940789
      21.2692  0.000933528
      21.3077  0.000926264
      21.3462  0.000918994
      21.3846  0.000911726
      21.4231  0.000904457
      21.4615  0.000897189
         21.5  0.000889944
      21.5385  0.000882715
      21.5769  0.000875487
      21.6154  0.000868271
      21.6538  0.000861063
      21.6923  0.000853889
      21.7308  0.000846746
      21.7692  0.000839652
      21.8077  0.000832598
      21.8462  0.000825595
      21.8846  0.000818646
      21.9231  0.000811775
      21.9615  0.000804961
           22  0.000798215
      22.0385  0.000791544
      22.0769  0.000784946
      22.1154  0.000778427
      22.1538  0.000771969
      22.1923  0.000765597
      22.2308  0.000759305
      22.2692   0.00075309
      22.3077  0.000746954
      22.3462   0.00074089
      22.3846  0.000734897
      22.4231  0.000728971
      22.4615  0.000723117
         22.5  0.000717334
      22.5385  0.000711618
      22.5769  0.000705966
      22.6154  0.000700385
      22.6538  0.000694856
      22.6923  0.000689385
      22.7308  0.000683963
      22.7692  0.000678592
      22.8077  0.000673267
      22.8462  0.000667991
      22.8846  0.000662762
      22.9231  0.000657559
      22.9615  0.000652381
           23  0.000647234
      23.0385  0.000642123
      23.0769  0.000637048
      23.1154  0.000632016
      23.1538  0.000627029
      23.1923  0.000622084
      23.2308  0.000617183
      23.2692  0.000612331
      23.3077  0.000607531
      23.3462  0.000602779
      23.3846  0.000598081
      23.4231  0.000593433
      23.4615  0.000588832
         23.5  0.000584284
      23.5385  0.000579782
      23.5769  0.000575329
      23.6154   0.00057092
      23.6538  0.000566561
      23.6923  0.000562229
      23.7308  0.000557948
      23.7692  0.000553719
      23.8077  0.000549531
      23.8462  0.000545387
      23.8846  0.000541289
      23.9231  0.000537241
      23.9615  0.000533244
           24  0.000529295
      24.0385  0.000525401
      24.0769  0.000521557
      24.1154  0.000517763
      24.1538  0.000514021
      24.1923   0.00051033
      24.2308  0.000506681
      24.2692  0.000503068
      24.3077  0.000499499
      24.3462  0.000495966
      24.3846  0.000492469
      24.4231  0.000489003
      24.4615  0.000485567
         24.5   0.00048215
      24.5385  0.000478755
      24.5769  0.000475391
      24.6154  0.000472048
      24.6538  0.000468726
      24.6923  0.000465422
      24.7308  0.000462143
      24.7692  0.000458888
      24.8077  0.000455657
      24.8462  0.000452449
      24.8846  0.000449268
      24.9231  0.000446116
      24.9615  0.000442995
           25  0.000439907
      25.0385  0.000436855
      25.0769   0.00043384
      25.1154  0.000430859
      25.1538  0.000427915
      25.1923  0.000425008
      25.2308  0.000422137
      25.2692  0.000419303
      25.3077  0.000416505
      25.3462  0.000413745
      25.3846  0.000411018
      25.4231  0.000408324
      25.4615  0.000405659
         25.5  0.000403026
      25.5385  0.000400424
      25.5769  0.000397847
      25.6154  0.000395295
      25.6538   0.00039277
      25.6923  0.000390264
      25.7308  0.000387772
      25.7692  0.000385295
      25.8077  0.000382831
      25.8462  0.000380383
      25.8846  0.000377951
      25.9231  0.000375531
      25.9615  0.000373133
           26  0.000370751
      26.0385  0.000368385
      26.0769  0.000366038
      26.1154  0.000363707
      26.1538  0.000361394
      26.1923    0.0003591
      26.2308  0.000356819
      26.2692  0.000354562
      26.3077   0.00035232
      26.3462  0.000350098
      26.3846  0.000347898
      26.4231  0.000345713
      26.4615  0.000343549
         26.5  0.000341393
      26.5385  0.000339254
      26.5769  0.000337133
      26.6154  0.000335024
      26.6538  0.000332935
      26.6923  0.000330857
      26.7308   0.00032879
      26.7692  0.000326741
      26.8077  0.000324705
      26.8462  0.000322676
      26.8846  0.000320663
      26.9231  0.000318659
      26.9615  0.000316666
           27  0.000314685
      27.0385  0.000312714
      27.0769  0.000310755
      27.1154  0.000308806
      27.1538  0.000306865
      27.1923  0.000304936
      27.2308   0.00030302
      27.2692  0.000301111
      27.3077  0.000299209
      27.3462  0.000297319
      27.3846  0.000295442
      27.4231  0.000293565
      27.4615  0.000291701
         27.5  0.000289848
      27.5385  0.000288006
      27.5769  0.000286171
      27.6154  0.000284343
      27.6538  0.000282525
      27.6923   0.00028072
      27.7308  0.000278923
      27.7692  0.000277134
      27.8077  0.000275354
      27.8462  0.000273582
      27.8846  0.000271819
      27.9231  0.000270068
      27.9615  0.000268328
           28  0.000266598
      28.0385  0.000264879
      28.0769   0.00026317
      28.1154  0.000261466
      28.1538  0.000259776
      28.1923  0.000258094
      28.2308  0.000256417
      28.2692  0.000254749
      28.3077  0.000253089
      28.3462  0.000251439
      28.3846  0.000249797
      28.4231  0.000248162
      28.4615  0.000246536
         28.5  0.000244916
      28.5385  0.000243307
      28.5769  0.000241705
      28.6154  0.000240107
      28.6538  0.000238515
      28.6923  0.000236932
      28.7308  0.000235361
      28.7692  0.000233791
      28.8077  0.000232228
      28.8462  0.000230668
      28.8846  0.000229121
      28.9231  0.000227578
      28.9615  0.000226044
           29  0.000224514
      29.0385  0.000222994
      29.0769  0.000221476
      29.1154  0.000219963
      29.1538  0.000218458
      29.1923   0.00021696
      29.2308   0.00021547
      29.2692  0.000213986
      29.3077   0.00021251
      29.3462  0.000211042
      29.3846   0.00020958
      29.4231  0.000208123
      29.4615  0.000206674
         29.5  0.000205232
      29.5385  0.000203795
      29.5769  0.000202366
      29.6154  0.000200943
      29.6538  0.000199527
      29.6923  0.000198116
      29.7308  0.000196713
      29.7692  0.000195315
      29.8077  0.000193925
      29.8462  0.000192541
      29.8846  0.000191163
      29.9231  0.000189792
      29.9615  0.000188428
           30  0.000187071
      30.0385  0.000185722
      30.0769  0.000184379
      30.1154  0.000183044
      30.1538  0.000181718
      30.1923  0.000180397
      30.2308  0.000179079
      30.2692  0.000177771
      30.3077  0.000176471
      30.3462   0.00017518
      30.3846  0.000173897
      30.4231   0.00017262
      30.4615   0.00017135
         30.5  0.000170085
      30.5385  0.000168829
      30.5769  0.000167579
      30.6154  0.000166335
      30.6538  0.000165098
      30.6923  0.000163867
      30.7308  0.000162643
      30.7692  0.000161425
      30.8077  0.000160213
      30.8462  0.000159008
      30.8846  0.000157808
      30.9231  0.000156616
      30.9615  0.000155429
           31  0.000154248
      31.0385  0.000153074
      31.0769  0.000151905
      31.1154  0.000150743
      31.1538  0.000149586
      31.1923  0.000148436
      31.2308  0.000147292
      31.2692  0.000146155
      31.3077  0.000145023
      31.3462  0.000143897
      31.3846  0.000142777
      31.4231  0.000141664
      31.4615  0.000140555
         31.5  0.000139453
      31.5385  0.000138359
      31.5769  0.000137268
      31.6154  0.000136183
      31.6538  0.000135107
      31.6923  0.000134035
      31.7308  0.000132969
      31.7692   0.00013191
      31.8077  0.000130858
      31.8462  0.000129811
      31.8846  0.000128772
      31.9231  0.000127736
      31.9615  0.000126708
           32  0.000125686
      32.0385  0.000124669
      32.0769   0.00012366
      32.1154  0.000122655
      32.1538  0.000121658
      32.1923  0.000120667
      32.2308   0.00011968
      32.2692  0.000118702
      32.3077   0.00011773
      32.3462  0.000116763
      32.3846  0.000115802
      32.4231  0.000114849
      32.4615  0.000113902
         32.5  0.000112962
      32.5385  0.000112027
      32.5769    0.0001111
      32.6154  0.000110179
      32.6538  0.000109264
      32.6923  0.000108356
      32.7308  0.000107454
      32.7692  0.000106559
      32.8077   0.00010567
      32.8462  0.000104788
      32.8846  0.000103912
      32.9231  0.000103044
      32.9615  0.000102181
           33  0.000101327
      33.0385  0.000100479
      33.0769  9.96376e-05
      33.1154   9.8803e-05
      33.1538  9.79748e-05
      33.1923  9.71534e-05
      33.2308  9.63388e-05
      33.2692  9.55319e-05
      33.3077  9.47309e-05
      33.3462  9.39361e-05
      33.3846  9.31489e-05
      33.4231  9.23681e-05
      33.4615  9.15937e-05
         33.5  9.08252e-05
      33.5385  9.00631e-05
      33.5769  8.93074e-05
      33.6154  8.85574e-05
      33.6538  8.78133e-05
      33.6923  8.70766e-05
      33.7308   8.6345e-05
      33.7692  8.56193e-05
      33.8077  8.48996e-05
      33.8462  8.41853e-05
      33.8846  8.34774e-05
      33.9231  8.27737e-05
      33.9615  8.20771e-05
           34  8.13848e-05
      34.0385  8.07001e-05
      34.0769    8.002e-05
      34.1154   7.9343e-05
      34.1538  7.86734e-05
      34.1923  7.80091e-05
      34.2308  7.73499e-05
      34.2692  7.66961e-05
      34.3077  7.60477e-05
      34.3462  7.54039e-05
      34.3846  7.47648e-05
      34.4231  7.41302e-05
      34.4615  7.35012e-05
         34.5  7.28758e-05
      34.5385  7.22547e-05
      34.5769   7.1638e-05
      34.6154  7.10264e-05
      34.6538  7.04186e-05
      34.6923   6.9815e-05
      34.7308  6.92156e-05
      34.7692  6.86205e-05
      34.8077   6.8029e-05
      34.8462  6.74419e-05
      34.8846   6.6859e-05
      34.9231  6.62801e-05
      34.9615   6.5705e-05
           35  6.51335e-05
      35.0385  6.45659e-05
      35.0769  6.40024e-05
      35.1154  6.34423e-05
      35.1538  6.28859e-05
      35.1923  6.23332e-05
      35.2308  6.17844e-05
      35.2692  6.12394e-05
      35.3077  6.06971e-05
      35.3462  6.01581e-05
      35.3846   5.9623e-05
      35.4231  5.90915e-05
      35.4615  5.85626e-05
         35.5  5.80373e-05
      35.5385  5.75156e-05
      35.5769  5.69969e-05
      35.6154  5.64816e-05
      35.6538  5.59697e-05
      35.6923  5.54611e-05
      35.7308  5.49558e-05
      35.7692  5.44536e-05
      35.8077  5.39547e-05
      35.8462  5.34591e-05
      35.8846  5.29667e-05
      35.9231  5.24775e-05
      35.9615  5.19917e-05
           36  5.15096e-05
      36.0385  5.10307e-05
      36.0769  5.05546e-05
      36.1154  5.00821e-05
      36.1538  4.96126e-05
      36.1923  4.91465e-05
      36.2308  4.86843e-05
      36.2692  4.82255e-05
      36.3077  4.77702e-05
      36.3462  4.73184e-05
      36.3846  4.68701e-05
      36.4231  4.64248e-05
      36.4615  4.59837e-05
         36.5  4.55461e-05
      36.5385  4.51119e-05
      36.5769  4.46815e-05
      36.6154  4.42547e-05
      36.6538  4.38317e-05
      36.6923  4.34121e-05
      36.7308   4.2995e-05
      36.7692  4.25824e-05
      36.8077   4.2174e-05
      36.8462  4.17688e-05
      36.8846  4.13665e-05
      36.9231  4.09682e-05
      36.9615  4.05736e-05
           37  4.01826e-05
      37.0385  3.97952e-05
      37.0769   3.9411e-05
      37.1154  3.90305e-05
      37.1538  3.86533e-05
      37.1923  3.82798e-05
      37.2308  3.79095e-05
      37.2692  3.75426e-05
      37.3077  3.71789e-05
      37.3462  3.68184e-05
      37.3846   3.6461e-05
      37.4231  3.61071e-05
      37.4615  3.57559e-05
         37.5  3.54076e-05
      37.5385  3.50625e-05
      37.5769  3.47203e-05
      37.6154  3.43806e-05
      37.6538  3.40441e-05
      37.6923  3.37101e-05
      37.7308  3.33793e-05
      37.7692  3.30509e-05
      37.8077  3.27252e-05
      37.8462  3.24024e-05
      37.8846  3.20819e-05
      37.9231  3.17641e-05
      37.9615  3.14482e-05
           38  3.11347e-05
      38.0385  3.08232e-05
      38.0769  3.05141e-05
      38.1154  3.02073e-05
      38.1538  2.99023e-05
      38.1923  2.95992e-05
      38.2308  2.92981e-05
      38.2692  2.89989e-05
      38.3077  2.87018e-05
      38.3462  2.84062e-05
      38.3846  2.81125e-05
      38.4231  2.78202e-05
      38.4615  2.75302e-05
         38.5   2.7242e-05
      38.5385  2.69557e-05
      38.5769  2.66711e-05
      38.6154  2.63885e-05
      38.6538  2.61075e-05
      38.6923  2.58286e-05
      38.7308  2.55518e-05
      38.7692  2.52767e-05
      38.8077  2.50034e-05
      38.8462  2.47322e-05
      38.8846  2.44633e-05
      38.9231  2.41959e-05
      38.9615  2.39304e-05
           39  2.36669e-05
      39.0385  2.34054e-05
      39.0769  2.31458e-05
      39.1154  2.28883e-05
      39.1538  2.26327e-05
      39.1923  2.23791e-05
      39.2308  2.21272e-05
      39.2692  2.18777e-05
      39.3077  2.16301e-05
      39.3462  2.13846e-05
      39.3846   2.1141e-05
      39.4231  2.08996e-05
      39.4615  2.06602e-05
         39.5  2.04226e-05
      39.5385  2.01871e-05
      39.5769  1.99537e-05
      39.6154  1.97221e-05
      39.6538  1.94927e-05
      39.6923  1.92652e-05
      39.7308  1.90397e-05
      39.7692  1.88165e-05
      39.8077  1.85953e-05
      39.8462  1.83761e-05
      39.8846  1.81584e-05
      39.9231  1.79432e-05
      39.9615  1.77299e-05
           40  1.75183e-05
      40.0385  1.73086e-05
      40.0769  1.71009e-05
      40.1154  1.68951e-05
      40.1538  1.66912e-05
      40.1923  1.64889e-05
      40.2308  1.62882e-05
      40.2692   1.6089e-05
      40.3077  1.58914e-05
      40.3462  1.56953e-05
      40.3846  1.55006e-05
      40.4231  1.53074e-05
      40.4615  1.51151e-05
         40.5  1.49236e-05
      40.5385   1.4733e-05
      40.5769  1.45437e-05
      40.6154  1.43559e-05
      40.6538  1.41695e-05