#         Time        inlet       outlet
      1.2e-06            (0.0150505 -2.51169e-09 2.51881e-06)            (-0.0150348 0.000582228 3.57089e-06)
     2.64e-06            (0.0150505 -2.51169e-09 2.51881e-06)            (-0.0150397 0.000582405 3.4195e-06)
    4.368e-06            (0.0150505 -2.51169e-09 2.51881e-06)            (-0.0150392 0.000582385 3.40761e-06)
   6.4416e-06            (0.0150505 -2.51169e-09 2.51881e-06)            (-0.0150395 0.000582396 3.40498e-06)
  8.92992e-06            (0.0150505 -2.51169e-09 2.51881e-06)            (-0.0150391 0.00058238 3.40136e-06)
  1.19159e-05            (0.0150505 -2.51169e-09 2.51881e-06)            (-0.0150392 0.000582383 3.39962e-06)
  1.54991e-05            (0.0150505 -2.51169e-09 2.51881e-06)            (-0.0150392 0.000582385 3.39827e-06)
  1.97989e-05            (0.0150505 -2.51169e-09 2.51881e-06)            (-0.0150392 0.000582384 3.397e-06)
  2.49587e-05            (0.0150505 -2.51169e-09 2.51881e-06)            (-0.0150393 0.000582387 3.39619e-06)
  3.11504e-05            (0.0150505 -2.51169e-09 2.51881e-06)            (-0.0150392 0.000582385 3.39523e-06)
  3.85805e-05            (0.0150505 -2.51169e-09 2.51881e-06)            (-0.0150394 0.00058239 3.39457e-06)
  4.74965e-05            (0.0150505 -2.51169e-09 2.51881e-06)            (-0.0150391 0.000582381 3.3934e-06)
  5.81958e-05            (0.0150505 -2.51169e-09 2.51881e-06)            (-0.0150394 0.000582391 3.39271e-06)
   7.1035e-05            (0.0150505 -2.51169e-09 2.51881e-06)            (-0.0150393 0.000582387 3.39164e-06)
   8.6442e-05            (0.0150505 -2.51169e-09 2.51881e-06)            (-0.0150393 0.000582386 3.3905e-06)
   0.00010493            (0.0150505 -2.51169e-09 2.51881e-06)            (-0.0150392 0.000582386 3.38913e-06)
  0.000127116            (0.0150505 -2.51169e-09 2.51881e-06)            (-0.0150393 0.000582387 3.38772e-06)
   0.00015374            (0.0150505 -2.51169e-09 2.51881e-06)            (-0.0150391 0.000582381 3.38584e-06)
  0.000185688            (0.0150505 -2.51169e-09 2.51881e-06)            (-0.0150394 0.000582392 3.38422e-06)
  0.000224025            (0.0150505 -2.51169e-09 2.51881e-06)            (-0.0150393 0.000582389 3.38197e-06)
   0.00027003            (0.0150505 -2.51169e-09 2.51881e-06)            (-0.0150393 0.000582387 3.3793e-06)
  0.000325236            (0.0150505 -2.51169e-09 2.51881e-06)            (-0.0150392 0.000582384 3.37594e-06)
  0.000391483            (0.0150505 -2.51169e-09 2.51881e-06)            (-0.0150393 0.000582389 3.37278e-06)
   0.00047098            (0.0150505 -2.51169e-09 2.51881e-06)            (-0.0150389 0.000582372 3.36743e-06)
  0.000566376            (0.0150505 -2.51169e-09 2.51881e-06)            (-0.0150394 0.000582394 3.36454e-06)
   0.00068085            (0.0150505 -2.51169e-09 2.51881e-06)            (-0.0150387 0.000582365 3.35627e-06)
  0.000818221            (0.0150505 -2.51169e-09 2.51881e-06)            (-0.0150397 0.000582406 3.35267e-06)
  0.000983063            (0.0150505 -2.51169e-09 2.51881e-06)            (-0.0150389 0.000582372 3.34166e-06)
   0.00118087            (0.0150505 -2.51169e-09 2.51881e-06)            (-0.0150387 0.000582366 3.33222e-06)
   0.00141824            (0.0150505 -2.51169e-09 2.51881e-06)            (-0.0150396 0.000582401 3.32392e-06)
    0.0017031            (0.0150505 -2.51169e-09 2.51881e-06)            (-0.0150395 0.000582397 3.31215e-06)
   0.00204491            (0.0150505 -2.51169e-09 2.51881e-06)            (-0.0150398 0.000582407 3.29875e-06)
   0.00245508            (0.0150505 -2.51169e-09 2.51881e-06)            (-0.0150379 0.000582333 3.27417e-06)
    0.0029473            (0.0150505 -2.51169e-09 2.51881e-06)            (-0.0150398 0.000582409 3.26147e-06)
   0.00353797            (0.0150505 -2.51169e-09 2.51881e-06)            (-0.0150384 0.000582351 3.23175e-06)
   0.00424679            (0.0150505 -2.51169e-09 2.51881e-06)            (-0.0150398 0.000582408 3.21074e-06)
   0.00509742            (0.0150505 -2.51169e-09 2.51881e-06)            (-0.0150411 0.00058246 3.18524e-06)
   0.00611825            (0.0150505 -2.51169e-09 2.51881e-06)            (-0.0150382 0.000582343 3.13894e-06)
   0.00734314            (0.0150505 -2.51169e-09 2.51881e-06)            (-0.0150388 0.00058237 3.10145e-06)
   0.00881286            (0.0150505 -2.51169e-09 2.51881e-06)            (-0.0150407 0.000582445 3.06345e-06)
    0.0105765            (0.0150505 -2.51169e-09 2.51881e-06)            (-0.0150407 0.000582448 3.01248e-06)
    0.0126925            (0.0150505 -2.51169e-09 2.51881e-06)            (-0.0150383 0.000582349 2.94413e-06)
    0.0152319            (0.0150505 -2.51169e-09 2.51881e-06)            (-0.0150392 0.000582384 2.88016e-06)
    0.0182788            (0.0150505 -2.51169e-09 2.51881e-06)            (-0.0150358 0.000582245 2.77876e-06)
    0.0219337            (0.0150505 -2.51169e-09 2.51881e-06)            (-0.0150378 0.000582328 2.70254e-06)
    0.0263197            (0.0150505 -2.51169e-09 2.51881e-06)            (-0.0150359 0.000582253 2.60558e-06)
    0.0315829            (0.0150505 -2.51169e-09 2.51881e-06)            (-0.0150393 0.000582387 2.49469e-06)
     0.037896            (0.0150505 -2.51169e-09 2.51881e-06)            (-0.0150387 0.000582362 2.36275e-06)
    0.0454717            (0.0150505 -2.51169e-09 2.51881e-06)            (-0.0150406 0.000582442 2.232e-06)
    0.0545626            (0.0150505 -2.51169e-09 2.51881e-06)            (-0.0150397 0.000582402 2.05743e-06)
    0.0654797            (0.0150505 -2.51169e-09 2.51881e-06)            (-0.0150394 0.000582386 1.87777e-06)
    0.0785686            (0.0150505 -2.51169e-09 2.51881e-06)            (-0.0150396 0.000582394 1.6851e-06)
     0.094292            (0.0150505 -2.51169e-09 2.51881e-06)            (-0.0150361 0.00058227 1.43329e-06)
      0.11316            (0.0150505 -2.51169e-09 2.51881e-06)            (-0.0150428 0.000582497 1.31868e-06)
     0.135784            (0.0150505 -2.51169e-09 2.51881e-06)            (-0.0150426 0.000582495 1.03527e-06)
     0.162959            (0.0150505 -2.51169e-09 2.51881e-06)            (-0.0150375 0.000582291 7.48832e-07)
     0.195641            (0.0150505 -2.51169e-09 2.51881e-06)            (-0.0150333 0.00058213 3.42824e-07)
     0.235021            (0.0150505 -2.51169e-09 2.51881e-06)            (-0.0150415 0.000582484 -3.85911e-07)
     0.280839            (0.0150505 -2.51169e-09 2.51881e-06)            (-0.0150411 0.000582564 -1.61193e-06)
     0.333274            (0.0150505 -2.51169e-09 2.51881e-06)            (-0.0150436 0.000582915 -3.56002e-06)
     0.392346            (0.0150505 -2.51169e-09 2.51881e-06)            (-0.0150363 0.000582823 -6.64729e-06)
     0.455465            (0.0150505 -2.51169e-09 2.51881e-06)            (-0.0150387 0.000582475 -1.03635e-05)
     0.517719            (0.0150505 -2.51169e-09 2.51881e-06)            (-0.0150413 0.000580533 -1.44113e-05)
     0.579973            (0.0150505 -2.51169e-09 2.51881e-06)            (-0.015037 0.000575523 -1.89885e-05)
     0.642226            (0.0150505 -2.51169e-09 2.51881e-06)            (-0.0150484 0.000568291 -2.34699e-05)
      0.70448            (0.0150505 -2.51169e-09 2.51881e-06)            (-0.0150343 0.000556704 -2.78047e-05)
     0.766734            (0.0150505 -2.51169e-09 2.51881e-06)            (-0.0150327 0.000542819 -3.20876e-05)
     0.828988            (0.0150505 -2.51169e-09 2.51881e-06)            (-0.0150507 0.000527487 -3.63957e-05)
     0.891242            (0.0150505 -2.51169e-09 2.51881e-06)            (-0.0150356 0.000510328 -3.99435e-05)
     0.953496            (0.0150505 -2.51169e-09 2.51881e-06)            (-0.0150333 0.000494574 -4.21549e-05)
      1.01575            (0.0150505 -2.51169e-09 2.51881e-06)            (-0.0150417 0.000480692 -4.36918e-05)
        1.078            (0.0150505 -2.51169e-09 2.51881e-06)            (-0.0150484 0.000468776 -4.47306e-05)
      1.14026            (0.0150505 -2.51169e-09 2.51881e-06)            (-0.0150417 0.000459261 -4.47086e-05)
      1.20251            (0.0150505 -2.51169e-09 2.51881e-06)            (-0.0150486 0.000453146 -4.38344e-05)
      1.26477            (0.0150505 -2.51169e-09 2.51881e-06)            (-0.0150422 0.000448734 -4.28e-05)
      1.32702            (0.0150505 -2.51169e-09 2.51881e-06)            (-0.0150429 0.000446634 -4.16165e-05)
      1.38927            (0.0150505 -2.51169e-09 2.51881e-06)            (-0.0150309 0.000445618 -4.04796e-05)
      1.45153            (0.0150505 -2.51169e-09 2.51881e-06)            (-0.0150495 0.000447519 -3.85219e-05)
      1.51378            (0.0150505 -2.51169e-09 2.51881e-06)            (-0.0150451 0.000449483 -3.67304e-05)
      1.57604            (0.0150505 -2.51169e-09 2.51881e-06)            (-0.0150478 0.000451699 -3.54382e-05)
      1.63829            (0.0150505 -2.51169e-09 2.51881e-06)            (-0.0150394 0.000453704 -3.45346e-05)
      1.70054            (0.0150505 -2.51169e-09 2.51881e-06)            (-0.0150413 0.00045617 -3.36611e-05)
       1.7628            (0.0150505 -2.51169e-09 2.51881e-06)            (-0.0150502 0.000458916 -3.27503e-05)
      1.82505            (0.0150505 -2.51169e-09 2.51881e-06)            (-0.0150431 0.000460818 -3.19475e-05)
       1.8873            (0.0150505 -2.51169e-09 2.51881e-06)            (-0.015038 0.000462503 -3.13341e-05)
      1.94956            (0.0150505 -2.51169e-09 2.51881e-06)            (-0.0150516 0.000464307 -3.11192e-05)
      2.01181            (0.0150505 -2.51169e-09 2.51881e-06)            (-0.0150547 0.000465664 -3.06213e-05)
      2.07407            (0.0150505 -2.51169e-09 2.51881e-06)            (-0.0150491 0.000466458 -3.03291e-05)
      2.13632            (0.0150505 -2.51169e-09 2.51881e-06)            (-0.0150422 0.000466847 -3.03174e-05)
      2.19857            (0.0150505 -2.51169e-09 2.51881e-06)            (-0.0150325 0.000467018 -3.0276e-05)
      2.26083            (0.0150505 -2.51169e-09 2.51881e-06)            (-0.0150515 0.000468424 -2.98348e-05)
      2.32308            (0.0150505 -2.51169e-09 2.51881e-06)            (-0.0150391 0.000468501 -2.95846e-05)
      2.38534            (0.0150505 -2.51169e-09 2.51881e-06)            (-0.0150355 0.000468406 -2.97538e-05)
      2.44759            (0.0150505 -2.51169e-09 2.51881e-06)            (-0.0150421 0.000468804 -2.97e-05)
      2.50984            (0.0150505 -2.51169e-09 2.51881e-06)            (-0.0150426 0.000469184 -2.94779e-05)
       2.5721            (0.0150505 -2.51169e-09 2.51881e-06)            (-0.0150407 0.000469061 -2.96534e-05)
      2.63435            (0.0150505 -2.51169e-09 2.51881e-06)            (-0.0150557 0.000469804 -2.9302e-05)
      2.69661            (0.0150505 -2.51169e-09 2.51881e-06)            (-0.0150509 0.000469178 -2.98518e-05)
      2.75886            (0.0150505 -2.51169e-09 2.51881e-06)            (-0.0150378 0.000468657 -2.96618e-05)
      2.82111            (0.0150505 -2.51169e-09 2.51881e-06)            (-0.0150407 0.000468701 -2.97819e-05)
      2.88337            (0.0150505 -2.51169e-09 2.51881e-06)            (-0.0150407 0.000468752 -2.97248e-05)
      2.94562            (0.0150505 -2.51169e-09 2.51881e-06)            (-0.0150368 0.000468451 -3.00538e-05)
      3.00787            (0.0150505 -2.51169e-09 2.51881e-06)            (-0.0150343 0.000468594 -2.96696e-05)
      3.07013            (0.0150505 -2.51169e-09 2.51881e-06)            (-0.0150402 0.000468725 -2.98416e-05)
      3.13238            (0.0150505 -2.51169e-09 2.51881e-06)            (-0.0150484 0.000469065 -2.97296e-05)
      3.19464            (0.0150505 -2.51169e-09 2.51881e-06)            (-0.0150391 0.000468746 -2.97348e-05)
      3.25689            (0.0150505 -2.51169e-09 2.51881e-06)            (-0.0150463 0.000468933 -2.97934e-05)
      3.31914            (0.0150505 -2.51169e-09 2.51881e-06)            (-0.0150421 0.00046868 -2.99468e-05)
       3.3814            (0.0150505 -2.51169e-09 2.51881e-06)            (-0.0150533 0.000468807 -3.03439e-05)
      3.44365            (0.0150505 -2.51169e-09 2.51881e-06)            (-0.0150314 0.000467941 -3.0397e-05)
      3.50591            (0.0150505 -2.51169e-09 2.51881e-06)            (-0.0150441 0.000468578 -3.04052e-05)
      3.56816            (0.0150505 -2.51169e-09 2.51881e-06)            (-0.0150486 0.000468887 -3.0178e-05)
      3.63041            (0.0150505 -2.51169e-09 2.51881e-06)            (-0.0150423 0.00046866 -3.01134e-05)
      3.69267            (0.0150505 -2.51169e-09 2.51881e-06)            (-0.0150456 0.000468889 -2.99028e-05)
      3.75492            (0.0150505 -2.51169e-09 2.51881e-06)            (-0.0150398 0.000468515 -3.01996e-05)
      3.81718            (0.0150505 -2.51169e-09 2.51881e-06)            (-0.0150415 0.000468713 -3.00462e-05)
      3.87943            (0.0150505 -2.51169e-09 2.51881e-06)            (-0.0150442 0.000468772 -3.00239e-05)
      3.94168            (0.0150505 -2.51169e-09 2.51881e-06)            (-0.0150409 0.000468547 -3.01385e-05)
      4.00394            (0.0150505 -2.51169e-09 2.51881e-06)            (-0.0150456 0.000468888 -2.99942e-05)
      4.06619            (0.0150505 -2.51169e-09 2.51881e-06)            (-0.0150377 0.000468631 -2.98378e-05)
      4.12845            (0.0150505 -2.51169e-09 2.51881e-06)            (-0.0150443 0.000468689 -3.0115e-05)
       4.1907            (0.0150505 -2.51169e-09 2.51881e-06)            (-0.0150412 0.000468455 -3.01091e-05)
      4.25295            (0.0150505 -2.51169e-09 2.51881e-06)            (-0.0150464 0.000468807 -2.98387e-05)
      4.31521            (0.0150505 -2.51169e-09 2.51881e-06)            (-0.0150449 0.000468827 -2.98554e-05)
      4.37746            (0.0150505 -2.51169e-09 2.51881e-06)            (-0.0150433 0.0004687 -3.00715e-05)
      4.43971            (0.0150505 -2.51169e-09 2.51881e-06)            (-0.0150366 0.000468451 -2.99622e-05)
      4.50197            (0.0150505 -2.51169e-09 2.51881e-06)            (-0.0150336 0.000468079 -3.0381e-05)
      4.56422            (0.0150505 -2.51169e-09 2.51881e-06)            (-0.0150479 0.000469017 -2.98562e-05)
      4.62648            (0.0150505 -2.51169e-09 2.51881e-06)            (-0.0150477 0.000468959 -2.96615e-05)
      4.68873            (0.0150505 -2.51169e-09 2.51881e-06)            (-0.0150505 0.000468685 -3.01385e-05)
      4.75098            (0.0150505 -2.51169e-09 2.51881e-06)            (-0.0150507 0.000468923 -2.96688e-05)
      4.81324            (0.0150505 -2.51169e-09 2.51881e-06)            (-0.015044 0.000468621 -2.98123e-05)
      4.87549            (0.0150505 -2.51169e-09 2.51881e-06)            (-0.0150452 0.000468663 -2.98905e-05)
      4.93775            (0.0150505 -2.51169e-09 2.51881e-06)            (-0.0150431 0.000468835 -2.97241e-05)
            5            (0.0150505 -2.51169e-09 2.51881e-06)            (-0.0150422 0.000468818 -2.97543e-05)
       5.0625            (0.0150505 -2.51169e-09 2.51881e-06)            (-0.0150464 0.000468624 -3.02257e-05)
        5.125            (0.0150505 -2.51169e-09 2.51881e-06)            (-0.0150401 0.000468595 -2.99745e-05)
       5.1875            (0.0150505 -2.51169e-09 2.51881e-06)            (-0.0150504 0.000468966 -3.00375e-05)
         5.25            (0.0150505 -2.51169e-09 2.51881e-06)            (-0.0150535 0.000469404 -2.96027e-05)
       5.3125            (0.0150505 -2.51169e-09 2.51881e-06)            (-0.0150486 0.00046905 -2.9856e-05)
        5.375            (0.0150505 -2.51169e-09 2.51881e-06)            (-0.0150569 0.00046953 -2.95427e-05)
       5.4375            (0.0150505 -2.51169e-09 2.51881e-06)            (-0.0150429 0.000468773 -2.98589e-05)
          5.5            (0.0150505 -2.51169e-09 2.51881e-06)            (-0.015046 0.000468691 -2.99788e-05)
       5.5625            (0.0150505 -2.51169e-09 2.51881e-06)            (-0.0150418 0.000468728 -2.97187e-05)
        5.625            (0.0150505 -2.51169e-09 2.51881e-06)            (-0.0150457 0.000468612 -3.01207e-05)
       5.6875            (0.0150505 -2.51169e-09 2.51881e-06)            (-0.0150506 0.000469273 -2.95534e-05)
         5.75            (0.0150505 -2.51169e-09 2.51881e-06)            (-0.0150477 0.000469212 -2.96219e-05)
       5.8125            (0.0150505 -2.51169e-09 2.51881e-06)            (-0.0150448 0.000468885 -2.9903e-05)
        5.875            (0.0150505 -2.51169e-09 2.51881e-06)            (-0.0150419 0.00046869 -3.00257e-05)
       5.9375            (0.0150505 -2.51169e-09 2.51881e-06)            (-0.0150418 0.000468871 -2.97175e-05)
            6            (0.0150505 -2.51169e-09 2.51881e-06)            (-0.0150341 0.000468433 -2.9964e-05)
       6.0625            (0.0150505 -2.51169e-09 2.51881e-06)            (-0.0150426 0.000468653 -2.9968e-05)
        6.125            (0.0150505 -2.51169e-09 2.51881e-06)            (-0.0150456 0.000468856 -2.98382e-05)
       6.1875            (0.0150505 -2.51169e-09 2.51881e-06)            (-0.0150425 0.000468842 -2.98674e-05)
         6.25            (0.0150505 -2.51169e-09 2.51881e-06)            (-0.0150472 0.000469066 -2.97546e-05)
       6.3125            (0.0150505 -2.51169e-09 2.51881e-06)            (-0.0150367 0.000468618 -2.98406e-05)
        6.375            (0.0150505 -2.51169e-09 2.51881e-06)            (-0.0150486 0.000469154 -2.97431e-05)
       6.4375            (0.0150505 -2.51169e-09 2.51881e-06)            (-0.015042 0.000468753 -2.98849e-05)
          6.5            (0.0150505 -2.51169e-09 2.51881e-06)            (-0.0150442 0.000468823 -2.98921e-05)
       6.5625            (0.0150505 -2.51169e-09 2.51881e-06)            (-0.0150418 0.000468611 -3.02208e-05)
        6.625            (0.0150505 -2.51169e-09 2.51881e-06)            (-0.0150536 0.000469202 -3.00289e-05)
       6.6875            (0.0150505 -2.51169e-09 2.51881e-06)            (-0.0150503 0.000469091 -2.99629e-05)
         6.75            (0.0150505 -2.51169e-09 2.51881e-06)            (-0.0150464 0.000468632 -3.0316e-05)
       6.8125            (0.0150505 -2.51169e-09 2.51881e-06)            (-0.0150367 0.000468023 -3.0618e-05)
        6.875            (0.0150505 -2.51169e-09 2.51881e-06)            (-0.0150413 0.000468464 -3.0284e-05)
       6.9375            (0.0150505 -2.51169e-09 2.51881e-06)            (-0.0150302 0.000467735 -3.06611e-05)
            7            (0.0150505 -2.51169e-09 2.51881e-06)            (-0.0150415 0.000468603 -3.01302e-05)
       7.0625            (0.0150505 -2.51169e-09 2.51881e-06)            (-0.0150421 0.000468202 -3.05186e-05)
        7.125            (0.0150505 -2.51169e-09 2.51881e-06)            (-0.0150418 0.000468225 -3.0187e-05)
       7.1875            (0.0150505 -2.51169e-09 2.51881e-06)            (-0.0150477 0.000468664 -3.00766e-05)
         7.25            (0.0150505 -2.51169e-09 2.51881e-06)            (-0.0150458 0.000468574 -3.0193e-05)
       7.3125            (0.0150505 -2.51169e-09 2.51881e-06)            (-0.0150487 0.00046923 -2.99132e-05)
        7.375            (0.0150505 -2.51169e-09 2.51881e-06)            (-0.015035 0.000468249 -3.03257e-05)
       7.4375            (0.0150505 -2.51169e-09 2.51881e-06)            (-0.0150437 0.000468681 -3.00888e-05)
          7.5            (0.0150505 -2.51169e-09 2.51881e-06)            (-0.0150492 0.000469125 -2.97759e-05)
       7.5625            (0.0150505 -2.51169e-09 2.51881e-06)            (-0.0150347 0.000468639 -2.97729e-05)
        7.625            (0.0150505 -2.51169e-09 2.51881e-06)            (-0.015043 0.00046887 -2.97924e-05)
       7.6875            (0.0150505 -2.51169e-09 2.51881e-06)            (-0.0150358 0.000468583 -2.98956e-05)
         7.75            (0.0150505 -2.51169e-09 2.51881e-06)            (-0.0150387 0.000468717 -2.96414e-05)
       7.8125            (0.0150505 -2.51169e-09 2.51881e-06)            (-0.0150486 0.000468965 -2.98636e-05)
        7.875            (0.0150505 -2.51169e-09 2.51881e-06)            (-0.0150466 0.000469282 -2.97273e-05)
       7.9375            (0.0150505 -2.51169e-09 2.51881e-06)            (-0.0150569 0.000469577 -2.97419e-05)
            8            (0.0150505 -2.51169e-09 2.51881e-06)            (-0.0150426 0.000468655 -3.01656e-05)
       8.0625            (0.0150505 -2.51169e-09 2.51881e-06)            (-0.0150489 0.000468967 -3.00281e-05)
        8.125            (0.0150505 -2.51169e-09 2.51881e-06)            (-0.0150522 0.000468766 -3.0393e-05)
       8.1875            (0.0150505 -2.51169e-09 2.51881e-06)            (-0.0150484 0.000468827 -3.0049e-05)
         8.25            (0.0150505 -2.51169e-09 2.51881e-06)            (-0.0150311 0.000467885 -3.03577e-05)
       8.3125            (0.0150505 -2.51169e-09 2.51881e-06)            (-0.0150516 0.000468862 -3.0072e-05)
        8.375            (0.0150505 -2.51169e-09 2.51881e-06)            (-0.0150475 0.000468499 -2.98961e-05)
       8.4375            (0.0150505 -2.51169e-09 2.51881e-06)            (-0.0150478 0.000468534 -3.01288e-05)
          8.5            (0.0150505 -2.51169e-09 2.51881e-06)            (-0.0150416 0.000468165 -3.03677e-05)
       8.5625            (0.0150505 -2.51169e-09 2.51881e-06)            (-0.0150471 0.000468933 -2.99215e-05)
        8.625            (0.0150505 -2.51169e-09 2.51881e-06)            (-0.0150415 0.000468664 -3.01307e-05)
       8.6875            (0.0150505 -2.51169e-09 2.51881e-06)            (-0.0150462 0.000468589 -3.03749e-05)
         8.75            (0.0150505 -2.51169e-09 2.51881e-06)            (-0.0150403 0.000468437 -3.04074e-05)
       8.8125            (0.0150505 -2.51169e-09 2.51881e-06)            (-0.015052 0.000468881 -3.04919e-05)
        8.875            (0.0150505 -2.51169e-09 2.51881e-06)            (-0.0150451 0.000468558 -3.05442e-05)
       8.9375            (0.0150505 -2.51169e-09 2.51881e-06)            (-0.0150514 0.000468887 -3.02957e-05)
            9            (0.0150505 -2.51169e-09 2.51881e-06)            (-0.0150389 0.000468625 -2.99458e-05)
       9.0625            (0.0150505 -2.51169e-09 2.51881e-06)            (-0.0150462 0.000468799 -3.00498e-05)
        9.125            (0.0150505 -2.51169e-09 2.51881e-06)            (-0.0150485 0.000468786 -3.01411e-05)
       9.1875            (0.0150505 -2.51169e-09 2.51881e-06)            (-0.0150503 0.00046922 -2.96578e-05)
         9.25            (0.0150505 -2.51169e-09 2.51881e-06)            (-0.0150394 0.000468615 -2.98572e-05)
       9.3125            (0.0150505 -2.51169e-09 2.51881e-06)            (-0.0150337 0.0004687 -2.94975e-05)
        9.375            (0.0150505 -2.51169e-09 2.51881e-06)            (-0.0150549 0.000469234 -2.97876e-05)
       9.4375            (0.0150505 -2.51169e-09 2.51881e-06)            (-0.0150414 0.000468312 -3.0348e-05)
          9.5            (0.0150505 -2.51169e-09 2.51881e-06)            (-0.0150442 0.000468476 -3.02058e-05)
       9.5625            (0.0150505 -2.51169e-09 2.51881e-06)            (-0.0150452 0.000468972 -2.97685e-05)
        9.625            (0.0150505 -2.51169e-09 2.51881e-06)            (-0.0150576 0.000469082 -3.02219e-05)
       9.6875            (0.0150505 -2.51169e-09 2.51881e-06)            (-0.0150466 0.000468765 -3.00686e-05)
         9.75            (0.0150505 -2.51169e-09 2.51881e-06)            (-0.0150493 0.000469195 -2.99653e-05)
       9.8125            (0.0150505 -2.51169e-09 2.51881e-06)            (-0.0150342 0.000468485 -3.00555e-05)
        9.875            (0.0150505 -2.51169e-09 2.51881e-06)            (-0.0150405 0.000468656 -3.02159e-05)
       9.9375            (0.0150505 -2.51169e-09 2.51881e-06)            (-0.0150503 0.000469021 -2.99075e-05)
           10            (0.0150505 -2.51169e-09 2.51881e-06)            (-0.0150436 0.000468852 -2.98206e-05)
      10.0625            (0.0150505 -2.51169e-09 2.51881e-06)            (-0.0150325 0.000468304 -3.0179e-05)
       10.125            (0.0150505 -2.51169e-09 2.51881e-06)            (-0.015048 0.000468953 -2.99561e-05)
      10.1875            (0.0150505 -2.51169e-09 2.51881e-06)            (-0.015041 0.000468721 -2.99348e-05)
        10.25            (0.0150505 -2.51169e-09 2.51881e-06)            (-0.0150397 0.000468819 -2.98743e-05)
      10.3125            (0.0150505 -2.51169e-09 2.51881e-06)            (-0.015032 0.000468268 -3.0189e-05)
       10.375            (0.0150505 -2.51169e-09 2.51881e-06)            (-0.0150421 0.000468578 -3.03373e-05)
      10.4375            (0.0150505 -2.51169e-09 2.51881e-06)            (-0.0150473 0.000468919 -3.01787e-05)
         10.5            (0.0150505 -2.51169e-09 2.51881e-06)            (-0.0150391 0.000468585 -3.02384e-05)
      10.5625            (0.0150505 -2.51169e-09 2.51881e-06)            (-0.0150453 0.000469 -2.99135e-05)
       10.625            (0.0150505 -2.51169e-09 2.51881e-06)            (-0.015044 0.0004688 -3.00102e-05)
      10.6875            (0.0150505 -2.51169e-09 2.51881e-06)            (-0.0150317 0.000468005 -3.0303e-05)
        10.75            (0.0150505 -2.51169e-09 2.51881e-06)            (-0.0150485 0.000469085 -2.96619e-05)
      10.8125            (0.0150505 -2.51169e-09 2.51881e-06)            (-0.0150359 0.000468615 -2.96942e-05)
       10.875            (0.0150505 -2.51169e-09 2.51881e-06)            (-0.0150416 0.0004684 -3.03025e-05)
      10.9375            (0.0150505 -2.51169e-09 2.51881e-06)            (-0.0150364 0.000468405 -3.00214e-05)
           11            (0.0150505 -2.51169e-09 2.51881e-06)            (-0.0150414 0.000468648 -3.00304e-05)
      11.0625            (0.0150505 -2.51169e-09 2.51881e-06)            (-0.0150359 0.000468365 -3.01425e-05)
       11.125            (0.0150505 -2.51169e-09 2.51881e-06)            (-0.0150453 0.000468844 -2.99888e-05)
      11.1875            (0.0150505 -2.51169e-09 2.51881e-06)            (-0.015042 0.000468742 -3.015e-05)
        11.25            (0.0150505 -2.51169e-09 2.51881e-06)            (-0.015042 0.000468875 -2.98084e-05)
      11.3125            (0.0150505 -2.51169e-09 2.51881e-06)            (-0.015049 0.000468991 -3.0255e-05)
       11.375            (0.0150505 -2.51169e-09 2.51881e-06)            (-0.0150431 0.000468595 -3.02992e-05)
      11.4375            (0.0150505 -2.51169e-09 2.51881e-06)            (-0.0150476 0.000468904 -3.00461e-05)
         11.5            (0.0150505 -2.51169e-09 2.51881e-06)            (-0.0150348 0.000468738 -2.99627e-05)
      11.5625            (0.0150505 -2.51169e-09 2.51881e-06)            (-0.0150371 0.000468696 -2.96939e-05)
       11.625            (0.0150505 -2.51169e-09 2.51881e-06)            (-0.015049 0.000469094 -2.99201e-05)
      11.6875            (0.0150505 -2.51169e-09 2.51881e-06)            (-0.0150436 0.000468882 -2.98421e-05)
        11.75            (0.0150505 -2.51169e-09 2.51881e-06)            (-0.0150528 0.000469032 -2.9986e-05)
      11.8125            (0.0150505 -2.51169e-09 2.51881e-06)            (-0.0150482 0.000469008 -2.96151e-05)
       11.875            (0.0150505 -2.51169e-09 2.51881e-06)            (-0.0150374 0.000468539 -2.96836e-05)
      11.9375            (0.0150505 -2.51169e-09 2.51881e-06)            (-0.0150474 0.000468749 -3.00414e-05)
           12            (0.0150505 -2.51169e-09 2.51881e-06)            (-0.0150451 0.000468857 -2.9707e-05)
      12.0625            (0.0150505 -2.51169e-09 2.51881e-06)            (-0.0150447 0.000468561 -3.00696e-05)
       12.125            (0.0150505 -2.51169e-09 2.51881e-06)            (-0.0150395 0.000468476 -2.99307e-05)
      12.1875            (0.0150505 -2.51169e-09 2.51881e-06)            (-0.0150385 0.00046856 -2.98575e-05)
        12.25            (0.0150505 -2.51169e-09 2.51881e-06)            (-0.0150419 0.000468614 -2.99636e-05)
      12.3125            (0.0150505 -2.51169e-09 2.51881e-06)            (-0.0150363 0.000468764 -2.95338e-05)
       12.375            (0.0150505 -2.51169e-09 2.51881e-06)            (-0.0150454 0.000469332 -2.92319e-05)
      12.4375            (0.0150505 -2.51169e-09 2.51881e-06)            (-0.0150447 0.000469126 -2.95495e-05)
         12.5            (0.0150505 -2.51169e-09 2.51881e-06)            (-0.0150459 0.000468978 -2.97645e-05)
      12.5625            (0.0150505 -2.51169e-09 2.51881e-06)            (-0.0150369 0.000468777 -2.96614e-05)
       12.625            (0.0150505 -2.51169e-09 2.51881e-06)            (-0.0150355 0.000468364 -3.00751e-05)
      12.6875            (0.0150505 -2.51169e-09 2.51881e-06)            (-0.0150489 0.000468788 -3.0188e-05)
        12.75            (0.0150505 -2.51169e-09 2.51881e-06)            (-0.0150524 0.000469044 -3.00389e-05)
      12.8125            (0.0150505 -2.51169e-09 2.51881e-06)            (-0.0150523 0.000468753 -3.04057e-05)
       12.875            (0.0150505 -2.51169e-09 2.51881e-06)            (-0.0150415 0.000468542 -3.01496e-05)
      12.9375            (0.0150505 -2.51169e-09 2.51881e-06)            (-0.0150535 0.000469103 -3.02013e-05)
           13            (0.0150505 -2.51169e-09 2.51881e-06)            (-0.0150449 0.000468738 -3.01701e-05)
      13.0625            (0.0150505 -2.51169e-09 2.51881e-06)            (-0.015046 0.000469161 -2.97728e-05)
       13.125            (0.0150505 -2.51169e-09 2.51881e-06)            (-0.0150422 0.000468838 -2.98879e-05)
      13.1875            (0.0150505 -2.51169e-09 2.51881e-06)            (-0.0150497 0.000468866 -3.02276e-05)
        13.25            (0.0150505 -2.51169e-09 2.51881e-06)            (-0.0150551 0.000469019 -3.02458e-05)
      13.3125            (0.0150505 -2.51169e-09 2.51881e-06)            (-0.0150424 0.000468483 -3.02259e-05)
       13.375            (0.0150505 -2.51169e-09 2.51881e-06)            (-0.0150437 0.000468639 -3.00939e-05)
      13.4375            (0.0150505 -2.51169e-09 2.51881e-06)            (-0.0150414 0.000468492 -3.01095e-05)
         13.5            (0.0150505 -2.51169e-09 2.51881e-06)            (-0.0150487 0.000468975 -2.9844e-05)