#         Time        auto1        auto2
  1.20005e-06            (0 0.0100024 0)            (2.37328e-07 0.00998603 -3.00417e-07)
  2.64017e-06            (0 0.0100052 0)            (2.26003e-07 0.00999309 -1.0682e-07)
  4.36833e-06            (0 0.0100086 0)            (1.24545e-07 0.0099969 -1.22882e-07)
  6.44211e-06            (0 0.0100127 0)            (1.00568e-07 0.0100015 -2.49431e-07)
  8.93055e-06            (0 0.0100176 0)            (7.62396e-08 0.0100069 -2.42908e-07)
  1.19165e-05            (0 0.0100235 0)            (7.59406e-08 0.0100128 -2.46979e-07)
   1.5499e-05            (0 0.0100306 0)            (7.13581e-08 0.0100199 -2.49664e-07)
  1.97972e-05            (0 0.0100391 0)            (6.82487e-08 0.0100284 -2.51348e-07)
