#         Time        inlet       outlet
      1.2e-06            (0.0150581 0 0)            (-0.011165 -0.00857515 -0.00531157)
     2.64e-06            (0.0150581 0 0)            (-0.0111741 -0.00857967 -0.00531696)
    4.368e-06            (0.0150581 0 0)            (-0.0111744 -0.0085789 -0.00531749)
   6.4416e-06            (0.0150581 0 0)            (-0.0111745 -0.00857852 -0.00531778)
  8.92992e-06            (0.0150581 0 0)            (-0.0111746 -0.00857823 -0.00531797)
  1.19159e-05            (0.0150581 0 0)            (-0.0111747 -0.00857801 -0.00531813)
  1.54991e-05            (0.0150581 0 0)            (-0.0111748 -0.00857782 -0.00531827)
  1.97989e-05            (0.0150581 0 0)            (-0.0111748 -0.00857764 -0.0053184)
  2.49587e-05            (0.0150581 0 0)            (-0.0111749 -0.00857747 -0.00531852)
  3.11504e-05            (0.0150581 0 0)            (-0.0111749 -0.00857731 -0.00531863)
  3.85805e-05            (0.0150581 0 0)            (-0.011175 -0.00857716 -0.00531875)
  4.74965e-05            (0.0150581 0 0)            (-0.0111751 -0.008577 -0.00531886)
  5.81958e-05            (0.0150581 0 0)            (-0.0111751 -0.00857685 -0.00531898)
   7.1035e-05            (0.0150581 0 0)            (-0.0111752 -0.00857669 -0.0053191)
   8.6442e-05            (0.0150581 0 0)            (-0.0111753 -0.00857652 -0.00531923)
   0.00010493            (0.0150581 0 0)            (-0.0111753 -0.00857635 -0.00531936)
  0.000127116            (0.0150581 0 0)            (-0.0111754 -0.00857616 -0.0053195)
   0.00015374            (0.0150581 0 0)            (-0.0111755 -0.00857596 -0.00531965)
  0.000185688            (0.0150581 0 0)            (-0.0111756 -0.00857575 -0.00531983)
  0.000224025            (0.0150581 0 0)            (-0.0111757 -0.0085755 -0.00532001)
   0.00027003            (0.0150581 0 0)            (-0.0111758 -0.00857522 -0.00532021)
  0.000325236            (0.0150581 0 0)            (-0.0111759 -0.00857492 -0.00532044)
  0.000391483            (0.0150581 0 0)            (-0.0111761 -0.0085746 -0.00532071)
   0.00047098            (0.0150581 0 0)            (-0.0111763 -0.00857422 -0.00532101)
  0.000566376            (0.0150581 0 0)            (-0.0111764 -0.00857376 -0.00532135)
   0.00068085            (0.0150581 0 0)            (-0.0111767 -0.00857324 -0.00532173)
  0.000818221            (0.0150581 0 0)            (-0.0111769 -0.00857267 -0.00532219)
  0.000983063            (0.0150581 0 0)            (-0.0111772 -0.008572 -0.00532272)
   0.00118087            (0.0150581 0 0)            (-0.0111775 -0.00857119 -0.00532331)
   0.00141824            (0.0150581 0 0)            (-0.0111779 -0.00857029 -0.00532402)
    0.0017031            (0.0150581 0 0)            (-0.0111784 -0.00856928 -0.00532485)
   0.00204491            (0.0150581 0 0)            (-0.0111789 -0.00856799 -0.00532575)
   0.00245508            (0.0150581 0 0)            (-0.0111794 -0.00856657 -0.00532682)
    0.0029473            (0.0150581 0 0)            (-0.0111802 -0.00856498 -0.00532808)
   0.00353797            (0.0150581 0 0)            (-0.0111808 -0.00856302 -0.00532946)
   0.00424679            (0.0150581 0 0)            (-0.011182 -0.008561 -0.0053312)
   0.00509742            (0.0150581 0 0)            (-0.0111829 -0.00855842 -0.00533306)
   0.00611825            (0.0150581 0 0)            (-0.0111841 -0.00855555 -0.00533527)
   0.00734314            (0.0150581 0 0)            (-0.0111854 -0.00855217 -0.00533779)
   0.00881286            (0.0150581 0 0)            (-0.0111872 -0.00854843 -0.00534077)
    0.0105765            (0.0150581 0 0)            (-0.011189 -0.00854396 -0.00534409)
    0.0126925            (0.0150581 0 0)            (-0.0111911 -0.00853889 -0.00534796)
    0.0152319            (0.0150581 0 0)            (-0.0111936 -0.00853302 -0.00535239)
    0.0182788            (0.0150581 0 0)            (-0.0111965 -0.00852627 -0.00535759)
    0.0219337            (0.0150581 0 0)            (-0.0111998 -0.00851839 -0.00536368)
    0.0263197            (0.0150581 0 0)            (-0.0112036 -0.00850928 -0.00537072)
    0.0315829            (0.0150581 0 0)            (-0.011208 -0.00849886 -0.00537858)
     0.037896            (0.0150581 0 0)            (-0.0112127 -0.00848719 -0.00538738)
    0.0454717            (0.0150581 0 0)            (-0.0112182 -0.00847453 -0.00539732)
    0.0545626            (0.0150581 0 0)            (-0.0112237 -0.00846041 -0.00540769)
    0.0654556            (0.0150581 0 0)            (-0.0112299 -0.00844598 -0.00541891)
    0.0781408            (0.0150581 0 0)            (-0.0112362 -0.00843155 -0.00543009)
    0.0926169            (0.0150581 0 0)            (-0.0112417 -0.00841717 -0.00544059)
     0.108866            (0.0150581 0 0)            (-0.011247 -0.008404 -0.0054504)
     0.126915            (0.0150581 0 0)            (-0.011252 -0.00839244 -0.00545933)
     0.145031            (0.0150581 0 0)            (-0.0112561 -0.00838317 -0.00546657)
     0.163146            (0.0150581 0 0)            (-0.0112592 -0.00837558 -0.0054723)
      0.18133            (0.0150581 0 0)            (-0.0112617 -0.00836945 -0.00547691)
     0.199177            (0.0150581 0 0)            (-0.0112638 -0.00836471 -0.00548064)
     0.216698            (0.0150581 0 0)            (-0.0112652 -0.0083607 -0.00548346)
     0.233966            (0.0150581 0 0)            (-0.0112666 -0.0083577 -0.00548587)
     0.251049            (0.0150581 0 0)            (-0.0112679 -0.0083553 -0.00548785)
     0.268009            (0.0150581 0 0)            (-0.0112686 -0.0083531 -0.00548931)
     0.284909            (0.0150581 0 0)            (-0.0112696 -0.00835157 -0.00549072)
     0.301749            (0.0150581 0 0)            (-0.0112699 -0.0083498 -0.00549159)
     0.318528            (0.0150581 0 0)            (-0.0112709 -0.00834883 -0.00549263)
     0.335308            (0.0150581 0 0)            (-0.0112716 -0.00834772 -0.00549336)
     0.352027            (0.0150581 0 0)            (-0.011272 -0.00834657 -0.00549385)
     0.368746            (0.0150581 0 0)            (-0.0112724 -0.00834545 -0.00549424)
     0.385466            (0.0150581 0 0)            (-0.0112735 -0.00834474 -0.00549477)
     0.402185            (0.0150581 0 0)            (-0.0112736 -0.00834321 -0.00549475)
     0.418965            (0.0150581 0 0)            (-0.0112751 -0.00834252 -0.00549524)
     0.435746            (0.0150581 0 0)            (-0.0112757 -0.00834088 -0.00549515)
     0.452526            (0.0150581 0 0)            (-0.0112768 -0.00833927 -0.00549514)
     0.469306            (0.0150581 0 0)            (-0.0112781 -0.00833748 -0.0054951)
     0.486087            (0.0150581 0 0)            (-0.0112796 -0.00833552 -0.00549506)
      0.50293            (0.0150581 0 0)            (-0.0112818 -0.00833383 -0.00549531)
     0.519773            (0.0150581 0 0)            (-0.0112833 -0.00833151 -0.00549527)
     0.536616            (0.0150581 0 0)            (-0.0112848 -0.00832926 -0.00549537)
     0.553459            (0.0150581 0 0)            (-0.0112858 -0.00832711 -0.00549553)
     0.570302            (0.0150581 0 0)            (-0.0112868 -0.00832577 -0.00549616)
     0.587209            (0.0150581 0 0)            (-0.0112871 -0.00832513 -0.00549708)
     0.604116            (0.0150581 0 0)            (-0.0112865 -0.00832551 -0.00549838)
     0.621023            (0.0150581 0 0)            (-0.0112843 -0.00832673 -0.00549981)
     0.637931            (0.0150581 0 0)            (-0.0112814 -0.00832986 -0.00550192)
     0.654838            (0.0150581 0 0)            (-0.0112764 -0.00833408 -0.00550412)
     0.671745            (0.0150581 0 0)            (-0.0112702 -0.00834031 -0.00550688)
     0.688652            (0.0150581 0 0)            (-0.0112628 -0.00834837 -0.00551005)
     0.705626            (0.0150581 0 0)            (-0.0112537 -0.00835797 -0.00551342)
       0.7226            (0.0150581 0 0)            (-0.0112434 -0.00836902 -0.00551696)
     0.739574            (0.0150581 0 0)            (-0.0112319 -0.00838128 -0.00552054)
     0.756548            (0.0150581 0 0)            (-0.0112196 -0.00839456 -0.00552415)
     0.773521            (0.0150581 0 0)            (-0.0112073 -0.00840898 -0.00552794)
     0.790495            (0.0150581 0 0)            (-0.0111946 -0.0084236 -0.00553148)
     0.807469            (0.0150581 0 0)            (-0.0111817 -0.00843818 -0.00553475)
     0.824443            (0.0150581 0 0)            (-0.0111688 -0.00845241 -0.00553768)
     0.841417            (0.0150581 0 0)            (-0.011157 -0.00846672 -0.00554066)
      0.85846            (0.0150581 0 0)            (-0.0111456 -0.00848029 -0.00554324)
     0.875503            (0.0150581 0 0)            (-0.0111348 -0.00849283 -0.00554537)
     0.892547            (0.0150581 0 0)            (-0.0111247 -0.00850437 -0.00554718)
      0.90959            (0.0150581 0 0)            (-0.0111157 -0.00851491 -0.00554868)
     0.926633            (0.0150581 0 0)            (-0.0111079 -0.00852454 -0.00555)
     0.943677            (0.0150581 0 0)            (-0.0111009 -0.00853276 -0.00555089)
      0.96072            (0.0150581 0 0)            (-0.0110952 -0.00854002 -0.00555166)
     0.977764            (0.0150581 0 0)            (-0.0110904 -0.00854601 -0.00555209)
     0.994807            (0.0150581 0 0)            (-0.0110862 -0.00855073 -0.00555218)
      1.01185            (0.0150581 0 0)            (-0.0110836 -0.00855481 -0.00555232)
      1.02889            (0.0150581 0 0)            (-0.0110809 -0.00855718 -0.00555183)
      1.04601            (0.0150581 0 0)            (-0.0110798 -0.0085593 -0.00555158)
      1.06313            (0.0150581 0 0)            (-0.0110791 -0.00856031 -0.005551)
      1.08024            (0.0150581 0 0)            (-0.0110792 -0.00856067 -0.00555033)
      1.09736            (0.0150581 0 0)            (-0.0110801 -0.00856058 -0.0055497)
      1.11448            (0.0150581 0 0)            (-0.011081 -0.00855952 -0.00554871)
      1.13159            (0.0150581 0 0)            (-0.0110824 -0.00855808 -0.00554769)
      1.14871            (0.0150581 0 0)            (-0.0110844 -0.00855638 -0.00554669)
      1.16583            (0.0150581 0 0)            (-0.0110864 -0.00855421 -0.00554552)
      1.18295            (0.0150581 0 0)            (-0.0110888 -0.00855186 -0.00554435)
      1.20006            (0.0150581 0 0)            (-0.0110913 -0.00854927 -0.00554311)
      1.21718            (0.0150581 0 0)            (-0.011094 -0.00854662 -0.0055419)
       1.2343            (0.0150581 0 0)            (-0.0110968 -0.00854391 -0.00554067)
      1.25141            (0.0150581 0 0)            (-0.0110995 -0.00854111 -0.0055394)
      1.26853            (0.0150581 0 0)            (-0.0111023 -0.00853834 -0.00553815)
      1.28565            (0.0150581 0 0)            (-0.011105 -0.00853563 -0.00553691)
      1.30276            (0.0150581 0 0)            (-0.0111077 -0.00853296 -0.00553569)
      1.31996            (0.0150581 0 0)            (-0.0111103 -0.00853034 -0.00553447)
      1.33716            (0.0150581 0 0)            (-0.0111128 -0.00852786 -0.00553329)
      1.35435            (0.0150581 0 0)            (-0.0111152 -0.00852543 -0.00553212)
      1.37155            (0.0150581 0 0)            (-0.0111175 -0.00852315 -0.005531)
      1.38875            (0.0150581 0 0)            (-0.0111197 -0.00852104 -0.00552994)
      1.40594            (0.0150581 0 0)            (-0.0111218 -0.00851904 -0.00552892)
      1.42314            (0.0150581 0 0)            (-0.0111237 -0.00851709 -0.0055279)
      1.44033            (0.0150581 0 0)            (-0.0111255 -0.00851532 -0.00552695)
      1.45753            (0.0150581 0 0)            (-0.0111271 -0.0085137 -0.00552607)
      1.47473            (0.0150581 0 0)            (-0.0111287 -0.0085122 -0.00552524)
      1.49192            (0.0150581 0 0)            (-0.0111302 -0.00851082 -0.00552446)
      1.50912            (0.0150581 0 0)            (-0.0111315 -0.00850955 -0.00552373)
      1.52632            (0.0150581 0 0)            (-0.0111327 -0.00850838 -0.00552304)
      1.54351            (0.0150581 0 0)            (-0.0111338 -0.00850732 -0.00552242)
      1.56071            (0.0150581 0 0)            (-0.0111349 -0.00850635 -0.00552184)
      1.57791            (0.0150581 0 0)            (-0.0111358 -0.00850547 -0.00552131)
       1.5951            (0.0150581 0 0)            (-0.0111366 -0.00850467 -0.00552082)
       1.6123            (0.0150581 0 0)            (-0.0111374 -0.00850396 -0.00552039)
       1.6295            (0.0150581 0 0)            (-0.0111381 -0.0085033 -0.00551999)
      1.64669            (0.0150581 0 0)            (-0.0111387 -0.00850272 -0.00551964)
      1.66389            (0.0150581 0 0)            (-0.0111393 -0.0085022 -0.00551933)
      1.68109            (0.0150581 0 0)            (-0.0111398 -0.00850171 -0.00551905)
      1.69828            (0.0150581 0 0)            (-0.0111402 -0.00850128 -0.00551881)
      1.71548            (0.0150581 0 0)            (-0.0111406 -0.00850089 -0.0055186)
      1.73267            (0.0150581 0 0)            (-0.011141 -0.00850054 -0.00551842)
      1.74987            (0.0150581 0 0)            (-0.0111413 -0.00850022 -0.00551827)
      1.76707            (0.0150581 0 0)            (-0.0111416 -0.00849993 -0.00551814)
      1.78426            (0.0150581 0 0)            (-0.0111418 -0.00849968 -0.00551805)
      1.80146            (0.0150581 0 0)            (-0.0111421 -0.00849945 -0.00551797)
      1.81866            (0.0150581 0 0)            (-0.0111423 -0.00849923 -0.00551791)
      1.83585            (0.0150581 0 0)            (-0.0111424 -0.00849904 -0.00551787)
      1.85305            (0.0150581 0 0)            (-0.0111426 -0.00849887 -0.00551785)
      1.87025            (0.0150581 0 0)            (-0.0111427 -0.00849871 -0.00551785)
      1.88744            (0.0150581 0 0)            (-0.0111428 -0.00849856 -0.00551786)
      1.90464            (0.0150581 0 0)            (-0.0111429 -0.00849843 -0.00551787)
      1.92184            (0.0150581 0 0)            (-0.011143 -0.00849831 -0.0055179)
      1.93903            (0.0150581 0 0)            (-0.0111431 -0.00849819 -0.00551794)
      1.95623            (0.0150581 0 0)            (-0.0111431 -0.00849809 -0.00551798)
      1.97342            (0.0150581 0 0)            (-0.0111432 -0.00849799 -0.00551804)
      1.99062            (0.0150581 0 0)            (-0.0111432 -0.0084979 -0.00551809)
      2.00782            (0.0150581 0 0)            (-0.0111432 -0.00849783 -0.00551816)
      2.02501            (0.0150581 0 0)            (-0.0111433 -0.00849775 -0.00551822)
      2.04221            (0.0150581 0 0)            (-0.0111433 -0.00849769 -0.00551829)
      2.05941            (0.0150581 0 0)            (-0.0111433 -0.00849763 -0.00551836)
       2.0766            (0.0150581 0 0)            (-0.0111433 -0.00849757 -0.00551844)
       2.0938            (0.0150581 0 0)            (-0.0111433 -0.00849752 -0.00551851)
        2.111            (0.0150581 0 0)            (-0.0111433 -0.00849747 -0.00551858)
      2.12819            (0.0150581 0 0)            (-0.0111433 -0.00849743 -0.00551865)
      2.14539            (0.0150581 0 0)            (-0.0111433 -0.00849739 -0.00551872)
      2.16259            (0.0150581 0 0)            (-0.0111433 -0.00849735 -0.00551879)
      2.17978            (0.0150581 0 0)            (-0.0111433 -0.00849731 -0.00551885)
      2.19698            (0.0150581 0 0)            (-0.0111433 -0.00849728 -0.00551892)
      2.21418            (0.0150581 0 0)            (-0.0111433 -0.00849726 -0.00551899)
      2.23137            (0.0150581 0 0)            (-0.0111433 -0.00849724 -0.00551905)
      2.24857            (0.0150581 0 0)            (-0.0111433 -0.00849722 -0.00551911)
      2.26576            (0.0150581 0 0)            (-0.0111433 -0.0084972 -0.00551916)
      2.28296            (0.0150581 0 0)            (-0.0111433 -0.00849719 -0.00551922)
      2.30016            (0.0150581 0 0)            (-0.0111432 -0.00849717 -0.00551927)
      2.31735            (0.0150581 0 0)            (-0.0111432 -0.00849716 -0.00551932)
      2.33455            (0.0150581 0 0)            (-0.0111432 -0.00849715 -0.00551936)
      2.35175            (0.0150581 0 0)            (-0.0111432 -0.00849714 -0.00551941)
      2.36894            (0.0150581 0 0)            (-0.0111432 -0.00849714 -0.00551945)
      2.38614            (0.0150581 0 0)            (-0.0111432 -0.00849713 -0.00551949)
      2.40334            (0.0150581 0 0)            (-0.0111432 -0.00849713 -0.00551952)
      2.42053            (0.0150581 0 0)            (-0.0111431 -0.00849712 -0.00551956)
      2.43773            (0.0150581 0 0)            (-0.0111431 -0.00849712 -0.00551959)
      2.45493            (0.0150581 0 0)            (-0.0111431 -0.00849712 -0.00551962)
      2.47212            (0.0150581 0 0)            (-0.0111431 -0.00849712 -0.00551965)
      2.48932            (0.0150581 0 0)            (-0.0111431 -0.00849712 -0.00551968)
      2.50651            (0.0150581 0 0)            (-0.0111431 -0.00849712 -0.0055197)
      2.52371            (0.0150581 0 0)            (-0.0111431 -0.00849713 -0.00551973)
      2.54091            (0.0150581 0 0)            (-0.0111431 -0.00849713 -0.00551975)
       2.5581            (0.0150581 0 0)            (-0.011143 -0.00849713 -0.00551977)
       2.5753            (0.0150581 0 0)            (-0.011143 -0.00849713 -0.00551979)
       2.5925            (0.0150581 0 0)            (-0.011143 -0.00849714 -0.0055198)
      2.60969            (0.0150581 0 0)            (-0.011143 -0.00849714 -0.00551982)
      2.62689            (0.0150581 0 0)            (-0.011143 -0.00849714 -0.00551983)
      2.64409            (0.0150581 0 0)            (-0.011143 -0.00849715 -0.00551985)
      2.66128            (0.0150581 0 0)            (-0.011143 -0.00849715 -0.00551986)
      2.67848            (0.0150581 0 0)            (-0.011143 -0.00849715 -0.00551987)
      2.69568            (0.0150581 0 0)            (-0.011143 -0.00849715 -0.00551988)
      2.71287            (0.0150581 0 0)            (-0.011143 -0.00849716 -0.00551989)
      2.73007            (0.0150581 0 0)            (-0.011143 -0.00849716 -0.0055199)
      2.74726            (0.0150581 0 0)            (-0.011143 -0.00849716 -0.00551991)
      2.76446            (0.0150581 0 0)            (-0.0111429 -0.00849717 -0.00551991)
      2.78166            (0.0150581 0 0)            (-0.0111429 -0.00849717 -0.00551992)
      2.79885            (0.0150581 0 0)            (-0.0111429 -0.00849717 -0.00551993)
      2.81605            (0.0150581 0 0)            (-0.0111429 -0.00849718 -0.00551993)
      2.83325            (0.0150581 0 0)            (-0.0111429 -0.00849718 -0.00551994)
      2.85044            (0.0150581 0 0)            (-0.0111429 -0.00849718 -0.00551994)
      2.86764            (0.0150581 0 0)            (-0.0111429 -0.00849718 -0.00551995)
      2.88484            (0.0150581 0 0)            (-0.0111429 -0.00849718 -0.00551995)
      2.90203            (0.0150581 0 0)            (-0.0111429 -0.00849719 -0.00551995)
      2.91923            (0.0150581 0 0)            (-0.0111429 -0.00849719 -0.00551995)
      2.93643            (0.0150581 0 0)            (-0.0111429 -0.00849719 -0.00551996)
      2.95362            (0.0150581 0 0)            (-0.0111429 -0.00849719 -0.00551996)
      2.97082            (0.0150581 0 0)            (-0.0111429 -0.00849719 -0.00551996)
      2.98802            (0.0150581 0 0)            (-0.0111429 -0.00849719 -0.00551996)
      3.00521            (0.0150581 0 0)            (-0.0111429 -0.00849719 -0.00551996)
      3.02241            (0.0150581 0 0)            (-0.0111429 -0.00849719 -0.00551996)
       3.0396            (0.0150581 0 0)            (-0.0111429 -0.0084972 -0.00551996)
       3.0568            (0.0150581 0 0)            (-0.0111429 -0.0084972 -0.00551996)
        3.074            (0.0150581 0 0)            (-0.0111429 -0.0084972 -0.00551996)
      3.09119            (0.0150581 0 0)            (-0.0111429 -0.0084972 -0.00551996)
      3.10839            (0.0150581 0 0)            (-0.0111429 -0.0084972 -0.00551996)
      3.12559            (0.0150581 0 0)            (-0.0111429 -0.0084972 -0.00551996)
      3.14278            (0.0150581 0 0)            (-0.0111429 -0.0084972 -0.00551996)
      3.15998            (0.0150581 0 0)            (-0.0111429 -0.0084972 -0.00551996)
      3.17718            (0.0150581 0 0)            (-0.0111429 -0.0084972 -0.00551996)
      3.19437            (0.0150581 0 0)            (-0.0111429 -0.0084972 -0.00551996)
      3.21157            (0.0150581 0 0)            (-0.0111429 -0.0084972 -0.00551996)
      3.22877            (0.0150581 0 0)            (-0.0111429 -0.0084972 -0.00551996)
      3.24596            (0.0150581 0 0)            (-0.0111429 -0.0084972 -0.00551996)
      3.26316            (0.0150581 0 0)            (-0.0111429 -0.0084972 -0.00551996)
      3.28035            (0.0150581 0 0)            (-0.0111429 -0.0084972 -0.00551996)
      3.29755            (0.0150581 0 0)            (-0.0111429 -0.0084972 -0.00551996)
      3.31475            (0.0150581 0 0)            (-0.0111429 -0.0084972 -0.00551995)
      3.33194            (0.0150581 0 0)            (-0.0111429 -0.0084972 -0.00551995)
      3.34914            (0.0150581 0 0)            (-0.0111429 -0.00849721 -0.00551995)
      3.36634            (0.0150581 0 0)            (-0.0111429 -0.00849721 -0.00551995)
      3.38353            (0.0150581 0 0)            (-0.0111429 -0.00849721 -0.00551995)
      3.40073            (0.0150581 0 0)            (-0.0111429 -0.00849721 -0.00551995)
      3.41793            (0.0150581 0 0)            (-0.0111429 -0.00849721 -0.00551995)
      3.43512            (0.0150581 0 0)            (-0.0111429 -0.0084972 -0.00551994)
      3.45232            (0.0150581 0 0)            (-0.0111429 -0.0084972 -0.00551994)
      3.46952            (0.0150581 0 0)            (-0.0111429 -0.0084972 -0.00551994)
      3.48671            (0.0150581 0 0)            (-0.0111429 -0.0084972 -0.00551994)
      3.50391            (0.0150581 0 0)            (-0.0111429 -0.0084972 -0.00551994)
      3.52111            (0.0150581 0 0)            (-0.0111429 -0.0084972 -0.00551994)
       3.5383            (0.0150581 0 0)            (-0.0111429 -0.0084972 -0.00551994)
       3.5555            (0.0150581 0 0)            (-0.0111429 -0.0084972 -0.00551993)
      3.57269            (0.0150581 0 0)            (-0.0111429 -0.0084972 -0.00551993)
      3.58989            (0.0150581 0 0)            (-0.0111429 -0.0084972 -0.00551993)
      3.60709            (0.0150581 0 0)            (-0.0111429 -0.00849721 -0.00551993)
      3.62428            (0.0150581 0 0)            (-0.0111429 -0.0084972 -0.00551993)
      3.64148            (0.0150581 0 0)            (-0.0111429 -0.00849721 -0.00551993)
      3.65868            (0.0150581 0 0)            (-0.0111429 -0.00849721 -0.00551993)
      3.67587            (0.0150581 0 0)            (-0.0111429 -0.00849721 -0.00551993)
      3.69307            (0.0150581 0 0)            (-0.0111429 -0.0084972 -0.00551992)
      3.71027            (0.0150581 0 0)            (-0.0111429 -0.0084972 -0.00551992)
      3.72746            (0.0150581 0 0)            (-0.0111429 -0.0084972 -0.00551992)
      3.74466            (0.0150581 0 0)            (-0.0111429 -0.0084972 -0.00551992)
      3.76186            (0.0150581 0 0)            (-0.0111429 -0.0084972 -0.00551992)
      3.77905            (0.0150581 0 0)            (-0.0111429 -0.00849721 -0.00551992)
      3.79625            (0.0150581 0 0)            (-0.0111429 -0.0084972 -0.00551992)
      3.81344            (0.0150581 0 0)            (-0.0111429 -0.0084972 -0.00551992)
      3.83064            (0.0150581 0 0)            (-0.0111429 -0.0084972 -0.00551991)
      3.84784            (0.0150581 0 0)            (-0.0111429 -0.0084972 -0.00551991)
      3.86503            (0.0150581 0 0)            (-0.0111429 -0.0084972 -0.00551991)
      3.88223            (0.0150581 0 0)            (-0.0111429 -0.0084972 -0.00551991)
      3.89943            (0.0150581 0 0)            (-0.0111429 -0.00849721 -0.00551991)
      3.91662            (0.0150581 0 0)            (-0.0111429 -0.00849721 -0.00551992)
      3.93382            (0.0150581 0 0)            (-0.0111429 -0.00849721 -0.00551992)
      3.95102            (0.0150581 0 0)            (-0.0111429 -0.00849722 -0.00551992)
      3.96821            (0.0150581 0 0)            (-0.0111429 -0.00849722 -0.00551992)
      3.98541            (0.0150581 0 0)            (-0.0111429 -0.00849722 -0.00551992)
      4.00261            (0.0150581 0 0)            (-0.011143 -0.00849723 -0.00551993)
       4.0198            (0.0150581 0 0)            (-0.0111429 -0.00849721 -0.00551992)
        4.037            (0.0150581 0 0)            (-0.0111429 -0.00849719 -0.0055199)
       4.0542            (0.0150581 0 0)            (-0.0111429 -0.00849718 -0.00551989)
      4.07139            (0.0150581 0 0)            (-0.0111429 -0.00849717 -0.00551989)
      4.08859            (0.0150581 0 0)            (-0.0111429 -0.00849719 -0.0055199)
      4.10578            (0.0150581 0 0)            (-0.0111429 -0.00849721 -0.00551992)
      4.12298            (0.0150581 0 0)            (-0.011143 -0.00849724 -0.00551993)
      4.14018            (0.0150581 0 0)            (-0.011143 -0.00849726 -0.00551995)
      4.15737            (0.0150581 0 0)            (-0.011143 -0.00849728 -0.00551996)
      4.17457            (0.0150581 0 0)            (-0.0111431 -0.0084973 -0.00551997)
      4.19177            (0.0150581 0 0)            (-0.011143 -0.00849725 -0.00551994)
      4.20896            (0.0150581 0 0)            (-0.0111429 -0.00849718 -0.00551989)
      4.22616            (0.0150581 0 0)            (-0.0111429 -0.00849718 -0.00551989)
      4.24336            (0.0150581 0 0)            (-0.0111429 -0.00849721 -0.00551991)
      4.26055            (0.0150581 0 0)            (-0.011143 -0.00849723 -0.00551993)
      4.27775            (0.0150581 0 0)            (-0.011143 -0.00849724 -0.00551993)
      4.29495            (0.0150581 0 0)            (-0.0111429 -0.00849719 -0.0055199)
      4.31214            (0.0150581 0 0)            (-0.0111429 -0.00849717 -0.00551989)
      4.32934            (0.0150581 0 0)            (-0.0111429 -0.00849716 -0.00551988)
      4.34653            (0.0150581 0 0)            (-0.0111429 -0.00849715 -0.00551988)
      4.36373            (0.0150581 0 0)            (-0.0111429 -0.00849714 -0.00551987)
      4.38093            (0.0150581 0 0)            (-0.0111429 -0.00849718 -0.0055199)
      4.39812            (0.0150581 0 0)            (-0.011143 -0.00849723 -0.00551993)
      4.41532            (0.0150581 0 0)            (-0.011143 -0.00849727 -0.00551995)
      4.43252            (0.0150581 0 0)            (-0.0111431 -0.0084973 -0.00551998)
      4.44971            (0.0150581 0 0)            (-0.0111431 -0.00849734 -0.00552)
      4.46691            (0.0150581 0 0)            (-0.0111432 -0.00849737 -0.00552003)
      4.48411            (0.0150581 0 0)            (-0.0111429 -0.00849719 -0.00551991)
       4.5013            (0.0150581 0 0)            (-0.0111428 -0.00849705 -0.00551983)
       4.5185            (0.0150581 0 0)            (-0.0111426 -0.00849693 -0.00551975)
       4.5357            (0.0150581 0 0)            (-0.0111428 -0.00849712 -0.00551986)
      4.55289            (0.0150581 0 0)            (-0.011143 -0.00849725 -0.00551995)
      4.57009            (0.0150581 0 0)            (-0.0111431 -0.00849734 -0.00552001)
      4.58729            (0.0150581 0 0)            (-0.0111433 -0.00849743 -0.00552007)
      4.60448            (0.0150581 0 0)            (-0.0111428 -0.00849707 -0.0055198)
      4.62168            (0.0150581 0 0)            (-0.0111427 -0.00849696 -0.0055197)
      4.63887            (0.0150581 0 0)            (-0.0111429 -0.00849712 -0.00551981)
      4.65607            (0.0150581 0 0)            (-0.0111428 -0.00849709 -0.00551978)
      4.67327            (0.0150581 0 0)            (-0.011143 -0.00849722 -0.00551988)
      4.69046            (0.0150581 0 0)            (-0.0111432 -0.00849734 -0.00551996)
      4.70766            (0.0150581 0 0)            (-0.0111432 -0.00849739 -0.00552)
      4.72486            (0.0150581 0 0)            (-0.0111433 -0.00849744 -0.00552005)
      4.74205            (0.0150581 0 0)            (-0.0111434 -0.00849749 -0.00552009)
      4.75925            (0.0150581 0 0)            (-0.0111429 -0.00849715 -0.00551988)
      4.77645            (0.0150581 0 0)            (-0.0111426 -0.0084969 -0.00551972)
      4.79364            (0.0150581 0 0)            (-0.0111422 -0.00849665 -0.00551957)
      4.81084            (0.0150581 0 0)            (-0.0111427 -0.00849699 -0.00551977)
      4.82804            (0.0150581 0 0)            (-0.0111429 -0.00849717 -0.00551989)
      4.84523            (0.0150581 0 0)            (-0.0111432 -0.00849741 -0.00552006)
      4.86243            (0.0150581 0 0)            (-0.0111435 -0.00849764 -0.0055202)
      4.87962            (0.0150581 0 0)            (-0.011143 -0.00849725 -0.00551997)
      4.89682            (0.0150581 0 0)            (-0.0111426 -0.00849695 -0.00551978)
      4.91402            (0.0150581 0 0)            (-0.0111422 -0.00849666 -0.0055196)
      4.93121            (0.0150581 0 0)            (-0.0111429 -0.0084972 -0.00551993)
      4.94841            (0.0150581 0 0)            (-0.0111432 -0.00849736 -0.00552005)
      4.96561            (0.0150581 0 0)            (-0.0111431 -0.00849729 -0.00552001)
       4.9828            (0.0150581 0 0)            (-0.011143 -0.00849723 -0.00551997)