#        Time       inlet      outlet
     1.2e-06           (0.015058 0 0)           (-0.0078445 -0.012692 0.001981)
    2.64e-06           (0.015058 0 0)           (-0.0078494 -0.012696 0.001982)
   4.368e-06           (0.015058 0 0)           (-0.0078501 -0.012696 0.0019822)
  6.4416e-06           (0.015058 0 0)           (-0.0078504 -0.012696 0.0019822)
  8.9299e-06           (0.015058 0 0)           (-0.0078506 -0.012696 0.0019822)
  1.1916e-05           (0.015058 0 0)           (-0.0078508 -0.012696 0.0019822)
  1.5499e-05           (0.015058 0 0)           (-0.007851 -0.012695 0.0019823)
  1.9799e-05           (0.015058 0 0)           (-0.0078511 -0.012695 0.0019823)
  2.4959e-05           (0.015058 0 0)           (-0.0078513 -0.012695 0.0019823)
   3.115e-05           (0.015058 0 0)           (-0.0078514 -0.012695 0.0019823)
   3.858e-05           (0.015058 0 0)           (-0.0078515 -0.012695 0.0019823)
  4.7497e-05           (0.015058 0 0)           (-0.0078517 -0.012695 0.0019824)
  5.8196e-05           (0.015058 0 0)           (-0.0078518 -0.012695 0.0019824)
  7.1035e-05           (0.015058 0 0)           (-0.0078519 -0.012695 0.0019824)
  8.6442e-05           (0.015058 0 0)           (-0.0078521 -0.012695 0.0019824)
  0.00010493           (0.015058 0 0)           (-0.0078522 -0.012695 0.0019824)
  0.00012712           (0.015058 0 0)           (-0.0078524 -0.012695 0.0019825)
  0.00015374           (0.015058 0 0)           (-0.0078526 -0.012694 0.0019825)
  0.00018569           (0.015058 0 0)           (-0.0078528 -0.012694 0.0019825)
  0.00022403           (0.015058 0 0)           (-0.007853 -0.012694 0.0019825)
  0.00027003           (0.015058 0 0)           (-0.0078533 -0.012694 0.0019826)
  0.00032524           (0.015058 0 0)           (-0.0078535 -0.012694 0.0019826)
  0.00039148           (0.015058 0 0)           (-0.0078539 -0.012694 0.0019826)
  0.00047098           (0.015058 0 0)           (-0.0078542 -0.012693 0.0019827)
  0.00056638           (0.015058 0 0)           (-0.0078547 -0.012693 0.0019827)
  0.00068085           (0.015058 0 0)           (-0.0078552 -0.012693 0.0019828)
  0.00081822           (0.015058 0 0)           (-0.0078558 -0.012692 0.0019829)
  0.00098306           (0.015058 0 0)           (-0.0078565 -0.012692 0.001983)
   0.0011809           (0.015058 0 0)           (-0.0078573 -0.012692 0.0019831)
   0.0014182           (0.015058 0 0)           (-0.0078581 -0.012691 0.0019832)
   0.0017031           (0.015058 0 0)           (-0.0078592 -0.01269 0.0019833)
   0.0020449           (0.015058 0 0)           (-0.0078603 -0.012689 0.0019835)
   0.0024551           (0.015058 0 0)           (-0.0078619 -0.012689 0.0019837)
   0.0029473           (0.015058 0 0)           (-0.0078635 -0.012688 0.0019839)
    0.003538           (0.015058 0 0)           (-0.0078654 -0.012686 0.0019841)
   0.0042468           (0.015058 0 0)           (-0.0078675 -0.012685 0.0019844)
   0.0050974           (0.015058 0 0)           (-0.0078702 -0.012683 0.0019848)
   0.0061182           (0.015058 0 0)           (-0.007873 -0.012681 0.0019851)
   0.0073431           (0.015058 0 0)           (-0.007877 -0.01268 0.0019857)
   0.0088129           (0.015058 0 0)           (-0.0078801 -0.012676 0.001986)
    0.010577           (0.015058 0 0)           (-0.0078849 -0.012674 0.0019867)
    0.012692           (0.015058 0 0)           (-0.0078901 -0.012671 0.0019873)
    0.015232           (0.015058 0 0)           (-0.0078961 -0.012667 0.0019881)
    0.018279           (0.015058 0 0)           (-0.0079032 -0.012663 0.001989)
    0.021934           (0.015058 0 0)           (-0.0079115 -0.012657 0.0019901)
     0.02632           (0.015058 0 0)           (-0.0079207 -0.012651 0.0019913)
    0.031583           (0.015058 0 0)           (-0.0079314 -0.012645 0.0019927)
    0.037896           (0.015058 0 0)           (-0.0079434 -0.012637 0.0019942)
    0.045472           (0.015058 0 0)           (-0.0079564 -0.012629 0.0019959)
    0.054563           (0.015058 0 0)           (-0.0079702 -0.01262 0.0019977)
     0.06548           (0.015058 0 0)           (-0.0079849 -0.012611 0.0019996)
    0.078569           (0.015058 0 0)           (-0.0079997 -0.012602 0.0020015)
    0.094292           (0.015058 0 0)           (-0.0080144 -0.012592 0.0020034)
     0.11316           (0.015058 0 0)           (-0.0080285 -0.012583 0.0020053)
     0.13578           (0.015058 0 0)           (-0.0080418 -0.012575 0.002007)
     0.16281           (0.015058 0 0)           (-0.0080529 -0.012568 0.0020084)
     0.19402           (0.015058 0 0)           (-0.0080625 -0.012562 0.0020097)
      0.2291           (0.015058 0 0)           (-0.0080697 -0.012558 0.0020107)
     0.26726           (0.015058 0 0)           (-0.0080745 -0.012554 0.0020112)
     0.30453           (0.015058 0 0)           (-0.0080771 -0.01255 0.0020116)
     0.34093           (0.015058 0 0)           (-0.008082 -0.012552 0.0020124)
     0.37704           (0.015058 0 0)           (-0.0080829 -0.012549 0.0020124)
     0.41288           (0.015058 0 0)           (-0.0080832 -0.012547 0.0020125)
     0.44844           (0.015058 0 0)           (-0.0080833 -0.012548 0.0020127)
       0.484           (0.015058 0 0)           (-0.0080827 -0.012551 0.0020133)
     0.51901           (0.015058 0 0)           (-0.0080774 -0.012552 0.0020133)
     0.55374           (0.015058 0 0)           (-0.0080697 -0.012556 0.0020135)
     0.58821           (0.015058 0 0)           (-0.0080591 -0.012564 0.0020138)
     0.62241           (0.015058 0 0)           (-0.0080435 -0.012573 0.0020139)
     0.65661           (0.015058 0 0)           (-0.0080246 -0.012585 0.0020141)
     0.69081           (0.015058 0 0)           (-0.0080003 -0.012597 0.0020137)
     0.72501           (0.015058 0 0)           (-0.0079758 -0.012614 0.0020138)
     0.75921           (0.015058 0 0)           (-0.0079485 -0.01263 0.0020136)
     0.79314           (0.015058 0 0)           (-0.0079217 -0.012648 0.0020133)
     0.82706           (0.015058 0 0)           (-0.0078956 -0.012663 0.0020129)
     0.86127           (0.015058 0 0)           (-0.0078717 -0.012679 0.0020126)
     0.89547           (0.015058 0 0)           (-0.0078504 -0.012692 0.0020122)
     0.92968           (0.015058 0 0)           (-0.0078324 -0.012702 0.0020118)
     0.96388           (0.015058 0 0)           (-0.0078184 -0.012711 0.0020115)
     0.99808           (0.015058 0 0)           (-0.0078077 -0.012717 0.0020112)
      1.0323           (0.015058 0 0)           (-0.0078008 -0.012722 0.0020111)
      1.0665           (0.015058 0 0)           (-0.007797 -0.012725 0.002011)
      1.1007           (0.015058 0 0)           (-0.0077954 -0.012725 0.0020108)
      1.1349           (0.015058 0 0)           (-0.0077966 -0.012725 0.0020109)
      1.1691           (0.015058 0 0)           (-0.0077989 -0.012723 0.0020108)
      1.2033           (0.015058 0 0)           (-0.0078031 -0.012721 0.0020109)
      1.2375           (0.015058 0 0)           (-0.007808 -0.012718 0.002011)
      1.2717           (0.015058 0 0)           (-0.0078132 -0.012714 0.002011)
      1.3059           (0.015058 0 0)           (-0.0078188 -0.012711 0.002011)
      1.3401           (0.015058 0 0)           (-0.007824 -0.012707 0.002011)
      1.3743           (0.015058 0 0)           (-0.0078296 -0.012705 0.002011)
      1.4085           (0.015058 0 0)           (-0.0078343 -0.012701 0.0020109)
      1.4427           (0.015058 0 0)           (-0.0078394 -0.012699 0.002011)
      1.4769           (0.015058 0 0)           (-0.0078431 -0.012696 0.0020108)
      1.5112           (0.015058 0 0)           (-0.0078472 -0.012694 0.0020108)
      1.5454           (0.015058 0 0)           (-0.0078501 -0.012692 0.0020106)
      1.5796           (0.015058 0 0)           (-0.0078529 -0.012691 0.0020105)
      1.6138           (0.015058 0 0)           (-0.0078552 -0.012689 0.0020103)
       1.648           (0.015058 0 0)           (-0.0078571 -0.012688 0.0020102)
      1.6822           (0.015058 0 0)           (-0.007859 -0.012687 0.0020101)
      1.7164           (0.015058 0 0)           (-0.0078602 -0.012686 0.00201)
      1.7506           (0.015058 0 0)           (-0.0078612 -0.012685 0.0020098)
      1.7848           (0.015058 0 0)           (-0.0078621 -0.012685 0.0020097)
       1.819           (0.015058 0 0)           (-0.0078628 -0.012684 0.0020096)
      1.8532           (0.015058 0 0)           (-0.0078634 -0.012684 0.0020095)
      1.8874           (0.015058 0 0)           (-0.0078638 -0.012684 0.0020095)
      1.9216           (0.015058 0 0)           (-0.0078641 -0.012683 0.0020094)
      1.9558           (0.015058 0 0)           (-0.0078644 -0.012683 0.0020093)
        1.99           (0.015058 0 0)           (-0.0078646 -0.012683 0.0020093)
      2.0242           (0.015058 0 0)           (-0.0078647 -0.012683 0.0020093)
      2.0584           (0.015058 0 0)           (-0.0078648 -0.012683 0.0020092)
      2.0926           (0.015058 0 0)           (-0.0078649 -0.012683 0.0020092)
      2.1268           (0.015058 0 0)           (-0.0078649 -0.012683 0.0020092)
       2.161           (0.015058 0 0)           (-0.007865 -0.012683 0.0020092)
      2.1952           (0.015058 0 0)           (-0.007865 -0.012683 0.0020091)
      2.2294           (0.015058 0 0)           (-0.007865 -0.012683 0.0020091)
      2.2636           (0.015058 0 0)           (-0.007865 -0.012683 0.0020091)
      2.2979           (0.015058 0 0)           (-0.007865 -0.012683 0.0020091)
      2.3321           (0.015058 0 0)           (-0.007865 -0.012683 0.0020091)
      2.3663           (0.015058 0 0)           (-0.007865 -0.012683 0.0020091)
      2.4005           (0.015058 0 0)           (-0.0078651 -0.012683 0.0020091)
      2.4347           (0.015058 0 0)           (-0.007865 -0.012683 0.0020091)
      2.4689           (0.015058 0 0)           (-0.0078651 -0.012683 0.0020091)
      2.5031           (0.015058 0 0)           (-0.007865 -0.012683 0.0020091)
      2.5373           (0.015058 0 0)           (-0.007865 -0.012683 0.0020091)
      2.5715           (0.015058 0 0)           (-0.007865 -0.012683 0.0020091)
      2.6057           (0.015058 0 0)           (-0.007865 -0.012683 0.0020091)
      2.6399           (0.015058 0 0)           (-0.007865 -0.012683 0.0020091)
      2.6741           (0.015058 0 0)           (-0.007865 -0.012683 0.0020091)
      2.7083           (0.015058 0 0)           (-0.007865 -0.012683 0.0020091)
      2.7425           (0.015058 0 0)           (-0.007865 -0.012683 0.0020091)
      2.7767           (0.015058 0 0)           (-0.007865 -0.012683 0.0020091)
      2.8109           (0.015058 0 0)           (-0.007865 -0.012683 0.0020091)
      2.8451           (0.015058 0 0)           (-0.007865 -0.012683 0.0020091)
      2.8793           (0.015058 0 0)           (-0.007865 -0.012683 0.0020091)
      2.9135           (0.015058 0 0)           (-0.007865 -0.012683 0.0020091)
      2.9477           (0.015058 0 0)           (-0.007865 -0.012683 0.0020091)
      2.9819           (0.015058 0 0)           (-0.007865 -0.012683 0.0020091)
      3.0161           (0.015058 0 0)           (-0.007865 -0.012683 0.0020091)
      3.0503           (0.015058 0 0)           (-0.007865 -0.012683 0.0020091)
      3.0846           (0.015058 0 0)           (-0.007865 -0.012683 0.0020091)
      3.1188           (0.015058 0 0)           (-0.007865 -0.012683 0.0020091)
       3.153           (0.015058 0 0)           (-0.007865 -0.012683 0.0020091)
      3.1872           (0.015058 0 0)           (-0.007865 -0.012683 0.0020091)
      3.2214           (0.015058 0 0)           (-0.007865 -0.012683 0.0020091)
      3.2556           (0.015058 0 0)           (-0.007865 -0.012683 0.0020091)
      3.2898           (0.015058 0 0)           (-0.007865 -0.012683 0.0020091)
       3.324           (0.015058 0 0)           (-0.007865 -0.012683 0.0020091)
      3.3582           (0.015058 0 0)           (-0.007865 -0.012683 0.0020091)
      3.3924           (0.015058 0 0)           (-0.007865 -0.012683 0.0020091)
      3.4266           (0.015058 0 0)           (-0.007865 -0.012683 0.0020091)
      3.4608           (0.015058 0 0)           (-0.007865 -0.012683 0.0020091)
       3.495           (0.015058 0 0)           (-0.007865 -0.012683 0.0020091)
      3.5292           (0.015058 0 0)           (-0.007865 -0.012683 0.0020091)
      3.5634           (0.015058 0 0)           (-0.007865 -0.012683 0.0020091)
      3.5976           (0.015058 0 0)           (-0.007865 -0.012683 0.0020092)
      3.6318           (0.015058 0 0)           (-0.007865 -0.012683 0.0020091)
       3.666           (0.015058 0 0)           (-0.007865 -0.012683 0.0020091)
      3.7002           (0.015058 0 0)           (-0.007865 -0.012683 0.0020091)
      3.7344           (0.015058 0 0)           (-0.007865 -0.012683 0.0020091)
      3.7686           (0.015058 0 0)           (-0.007865 -0.012683 0.0020091)
      3.8028           (0.015058 0 0)           (-0.007865 -0.012683 0.0020091)
      3.8371           (0.015058 0 0)           (-0.007865 -0.012683 0.0020091)
      3.8713           (0.015058 0 0)           (-0.007865 -0.012683 0.0020091)
      3.9055           (0.015058 0 0)           (-0.007865 -0.012683 0.0020091)
      3.9397           (0.015058 0 0)           (-0.007865 -0.012683 0.0020091)
      3.9739           (0.015058 0 0)           (-0.007865 -0.012683 0.0020091)
      4.0081           (0.015058 0 0)           (-0.007865 -0.012683 0.0020092)
      4.0423           (0.015058 0 0)           (-0.007865 -0.012683 0.0020092)
      4.0765           (0.015058 0 0)           (-0.007865 -0.012683 0.0020092)
      4.1107           (0.015058 0 0)           (-0.007865 -0.012683 0.0020092)
      4.1449           (0.015058 0 0)           (-0.007865 -0.012683 0.0020092)
      4.1791           (0.015058 0 0)           (-0.007865 -0.012683 0.0020092)
      4.2133           (0.015058 0 0)           (-0.007865 -0.012683 0.0020092)
      4.2475           (0.015058 0 0)           (-0.007865 -0.012683 0.0020092)
      4.2817           (0.015058 0 0)           (-0.007865 -0.012683 0.0020092)
      4.3159           (0.015058 0 0)           (-0.007865 -0.012683 0.0020092)
      4.3501           (0.015058 0 0)           (-0.007865 -0.012683 0.0020092)
      4.3843           (0.015058 0 0)           (-0.007865 -0.012683 0.0020092)
      4.4185           (0.015058 0 0)           (-0.007865 -0.012683 0.0020092)
      4.4527           (0.015058 0 0)           (-0.007865 -0.012683 0.0020091)
      4.4869           (0.015058 0 0)           (-0.007865 -0.012683 0.0020091)
      4.5211           (0.015058 0 0)           (-0.007865 -0.012683 0.0020092)
      4.5553           (0.015058 0 0)           (-0.007865 -0.012683 0.0020092)
      4.5895           (0.015058 0 0)           (-0.007865 -0.012683 0.0020092)
      4.6238           (0.015058 0 0)           (-0.007865 -0.012683 0.0020092)
       4.658           (0.015058 0 0)           (-0.007865 -0.012683 0.0020091)
      4.6922           (0.015058 0 0)           (-0.007865 -0.012683 0.0020092)
      4.7264           (0.015058 0 0)           (-0.007865 -0.012683 0.0020092)
      4.7606           (0.015058 0 0)           (-0.007865 -0.012683 0.0020091)
      4.7948           (0.015058 0 0)           (-0.007865 -0.012683 0.0020092)
       4.829           (0.015058 0 0)           (-0.007865 -0.012683 0.0020092)
      4.8632           (0.015058 0 0)           (-0.007865 -0.012683 0.0020092)
      4.8974           (0.015058 0 0)           (-0.007865 -0.012683 0.0020092)
      4.9316           (0.015058 0 0)           (-0.007865 -0.012683 0.0020092)
      4.9658           (0.015058 0 0)           (-0.007865 -0.012683 0.0020092)
           5           (0.015058 0 0)           (-0.007865 -0.012683 0.0020092)
      5.0342           (0.015058 0 0)           (-0.007865 -0.012683 0.0020092)
      5.0685           (0.015058 0 0)           (-0.007865 -0.012683 0.0020092)
      5.1027           (0.015058 0 0)           (-0.007865 -0.012683 0.0020092)
       5.137           (0.015058 0 0)           (-0.007865 -0.012683 0.0020092)
      5.1712           (0.015058 0 0)           (-0.007865 -0.012683 0.0020092)
      5.2055           (0.015058 0 0)           (-0.007865 -0.012683 0.0020092)
      5.2397           (0.015058 0 0)           (-0.007865 -0.012683 0.0020092)
       5.274           (0.015058 0 0)           (-0.007865 -0.012683 0.0020092)
      5.3082           (0.015058 0 0)           (-0.007865 -0.012683 0.0020092)
      5.3425           (0.015058 0 0)           (-0.007865 -0.012683 0.0020092)
      5.3767           (0.015058 0 0)           (-0.007865 -0.012683 0.0020092)
       5.411           (0.015058 0 0)           (-0.007865 -0.012683 0.0020092)
      5.4452           (0.015058 0 0)           (-0.007865 -0.012683 0.0020092)
      5.4795           (0.015058 0 0)           (-0.007865 -0.012683 0.0020092)
      5.5137           (0.015058 0 0)           (-0.007865 -0.012683 0.0020092)
      5.5479           (0.015058 0 0)           (-0.007865 -0.012683 0.0020092)
      5.5822           (0.015058 0 0)           (-0.007865 -0.012683 0.0020091)
      5.6164           (0.015058 0 0)           (-0.007865 -0.012683 0.0020092)
      5.6507           (0.015058 0 0)           (-0.007865 -0.012683 0.0020092)
      5.6849           (0.015058 0 0)           (-0.007865 -0.012683 0.0020092)
      5.7192           (0.015058 0 0)           (-0.007865 -0.012683 0.0020093)
      5.7534           (0.015058 0 0)           (-0.007865 -0.012683 0.0020093)
      5.7877           (0.015058 0 0)           (-0.007865 -0.012683 0.0020092)
      5.8219           (0.015058 0 0)           (-0.007865 -0.012683 0.0020092)
      5.8562           (0.015058 0 0)           (-0.007865 -0.012683 0.0020092)
      5.8904           (0.015058 0 0)           (-0.007865 -0.012683 0.0020092)
      5.9247           (0.015058 0 0)           (-0.007865 -0.012683 0.0020092)
      5.9589           (0.015058 0 0)           (-0.007865 -0.012683 0.0020092)
      5.9932           (0.015058 0 0)           (-0.007865 -0.012683 0.0020092)
      6.0274           (0.015058 0 0)           (-0.007865 -0.012683 0.0020092)
      6.0616           (0.015058 0 0)           (-0.007865 -0.012683 0.0020092)
      6.0959           (0.015058 0 0)           (-0.007865 -0.012683 0.0020092)
      6.1301           (0.015058 0 0)           (-0.007865 -0.012683 0.0020092)
      6.1644           (0.015058 0 0)           (-0.007865 -0.012683 0.0020092)
      6.1986           (0.015058 0 0)           (-0.007865 -0.012683 0.0020092)
      6.2329           (0.015058 0 0)           (-0.007865 -0.012683 0.0020092)
      6.2671           (0.015058 0 0)           (-0.007865 -0.012683 0.0020092)
      6.3014           (0.015058 0 0)           (-0.007865 -0.012683 0.0020092)
      6.3356           (0.015058 0 0)           (-0.007865 -0.012683 0.0020092)
      6.3699           (0.015058 0 0)           (-0.007865 -0.012683 0.0020092)
      6.4041           (0.015058 0 0)           (-0.007865 -0.012683 0.0020092)
      6.4384           (0.015058 0 0)           (-0.007865 -0.012683 0.0020092)
      6.4726           (0.015058 0 0)           (-0.007865 -0.012683 0.0020092)
      6.5068           (0.015058 0 0)           (-0.007865 -0.012683 0.0020092)
      6.5411           (0.015058 0 0)           (-0.007865 -0.012683 0.0020092)
      6.5753           (0.015058 0 0)           (-0.007865 -0.012683 0.0020092)
      6.6096           (0.015058 0 0)           (-0.007865 -0.012683 0.0020092)
      6.6438           (0.015058 0 0)           (-0.007865 -0.012683 0.0020092)
      6.6781           (0.015058 0 0)           (-0.007865 -0.012683 0.0020092)
      6.7123           (0.015058 0 0)           (-0.007865 -0.012683 0.0020092)
      6.7466           (0.015058 0 0)           (-0.007865 -0.012683 0.0020092)
      6.7808           (0.015058 0 0)           (-0.007865 -0.012683 0.0020092)
      6.8151           (0.015058 0 0)           (-0.007865 -0.012683 0.0020092)
      6.8493           (0.015058 0 0)           (-0.007865 -0.012683 0.0020092)
      6.8836           (0.015058 0 0)           (-0.007865 -0.012683 0.0020092)
      6.9178           (0.015058 0 0)           (-0.007865 -0.012683 0.0020092)
      6.9521           (0.015058 0 0)           (-0.007865 -0.012683 0.0020092)
      6.9863           (0.015058 0 0)           (-0.007865 -0.012683 0.0020092)
      7.0205           (0.015058 0 0)           (-0.007865 -0.012683 0.0020092)
      7.0548           (0.015058 0 0)           (-0.007865 -0.012683 0.0020092)
       7.089           (0.015058 0 0)           (-0.007865 -0.012683 0.0020092)
      7.1233           (0.015058 0 0)           (-0.007865 -0.012683 0.0020092)
      7.1575           (0.015058 0 0)           (-0.007865 -0.012683 0.0020092)
      7.1918           (0.015058 0 0)           (-0.007865 -0.012683 0.0020091)
       7.226           (0.015058 0 0)           (-0.007865 -0.012683 0.0020091)
      7.2603           (0.015058 0 0)           (-0.007865 -0.012683 0.0020091)
      7.2945           (0.015058 0 0)           (-0.007865 -0.012683 0.0020091)
      7.3288           (0.015058 0 0)           (-0.007865 -0.012683 0.0020091)
       7.363           (0.015058 0 0)           (-0.007865 -0.012683 0.0020091)
      7.3973           (0.015058 0 0)           (-0.007865 -0.012683 0.0020091)
      7.4315           (0.015058 0 0)           (-0.007865 -0.012683 0.0020092)
      7.4658           (0.015058 0 0)           (-0.007865 -0.012683 0.0020092)
         7.5           (0.015058 0 0)           (-0.007865 -0.012683 0.0020092)
      7.5342           (0.015058 0 0)           (-0.007865 -0.012683 0.0020092)
      7.5685           (0.015058 0 0)           (-0.007865 -0.012683 0.0020092)
      7.6027           (0.015058 0 0)           (-0.007865 -0.012683 0.0020092)
       7.637           (0.015058 0 0)           (-0.007865 -0.012683 0.0020092)
      7.6712           (0.015058 0 0)           (-0.007865 -0.012683 0.0020092)
      7.7055           (0.015058 0 0)           (-0.007865 -0.012683 0.0020092)
      7.7397           (0.015058 0 0)           (-0.007865 -0.012683 0.0020092)
       7.774           (0.015058 0 0)           (-0.007865 -0.012683 0.0020092)
      7.8082           (0.015058 0 0)           (-0.007865 -0.012683 0.0020092)
      7.8425           (0.015058 0 0)           (-0.007865 -0.012683 0.0020092)
      7.8767           (0.015058 0 0)           (-0.007865 -0.012683 0.0020092)
       7.911           (0.015058 0 0)           (-0.007865 -0.012683 0.0020092)
      7.9452           (0.015058 0 0)           (-0.007865 -0.012683 0.0020092)
      7.9795           (0.015058 0 0)           (-0.007865 -0.012683 0.0020092)
      8.0137           (0.015058 0 0)           (-0.007865 -0.012683 0.0020091)
      8.0479           (0.015058 0 0)           (-0.007865 -0.012683 0.0020091)
      8.0822           (0.015058 0 0)           (-0.007865 -0.012683 0.0020091)
      8.1164           (0.015058 0 0)           (-0.007865 -0.012683 0.0020092)
      8.1507           (0.015058 0 0)           (-0.007865 -0.012683 0.0020092)
      8.1849           (0.015058 0 0)           (-0.007865 -0.012683 0.0020092)
      8.2192           (0.015058 0 0)           (-0.007865 -0.012683 0.0020091)
      8.2534           (0.015058 0 0)           (-0.007865 -0.012683 0.0020091)
      8.2877           (0.015058 0 0)           (-0.007865 -0.012683 0.0020091)
      8.3219           (0.015058 0 0)           (-0.007865 -0.012683 0.002009)
      8.3562           (0.015058 0 0)           (-0.007865 -0.012683 0.002009)
      8.3904           (0.015058 0 0)           (-0.007865 -0.012683 0.002009)
      8.4247           (0.015058 0 0)           (-0.007865 -0.012683 0.002009)
      8.4589           (0.015058 0 0)           (-0.007865 -0.012683 0.002009)
      8.4932           (0.015058 0 0)           (-0.007865 -0.012683 0.0020091)
      8.5274           (0.015058 0 0)           (-0.007865 -0.012683 0.0020091)
      8.5616           (0.015058 0 0)           (-0.007865 -0.012683 0.0020091)
      8.5959           (0.015058 0 0)           (-0.007865 -0.012683 0.0020091)
      8.6301           (0.015058 0 0)           (-0.007865 -0.012683 0.0020091)
      8.6644           (0.015058 0 0)           (-0.007865 -0.012683 0.0020089)
      8.6986           (0.015058 0 0)           (-0.007865 -0.012683 0.0020089)
      8.7329           (0.015058 0 0)           (-0.007865 -0.012683 0.002009)
      8.7671           (0.015058 0 0)           (-0.007865 -0.012683 0.002009)
      8.8014           (0.015058 0 0)           (-0.007865 -0.012683 0.002009)
      8.8356           (0.015058 0 0)           (-0.007865 -0.012683 0.002009)
      8.8699           (0.015058 0 0)           (-0.007865 -0.012683 0.002009)
      8.9041           (0.015058 0 0)           (-0.007865 -0.012683 0.002009)
      8.9384           (0.015058 0 0)           (-0.007865 -0.012683 0.002009)
      8.9726           (0.015058 0 0)           (-0.007865 -0.012683 0.002009)
      9.0068           (0.015058 0 0)           (-0.007865 -0.012683 0.0020091)
      9.0411           (0.015058 0 0)           (-0.007865 -0.012683 0.0020091)
      9.0753           (0.015058 0 0)           (-0.007865 -0.012683 0.0020091)
      9.1096           (0.015058 0 0)           (-0.007865 -0.012683 0.0020091)
      9.1438           (0.015058 0 0)           (-0.007865 -0.012683 0.0020091)
      9.1781           (0.015058 0 0)           (-0.007865 -0.012683 0.0020091)
      9.2123           (0.015058 0 0)           (-0.007865 -0.012683 0.0020091)
      9.2466           (0.015058 0 0)           (-0.007865 -0.012683 0.0020091)
      9.2808           (0.015058 0 0)           (-0.007865 -0.012683 0.0020091)
      9.3151           (0.015058 0 0)           (-0.007865 -0.012683 0.0020091)
      9.3493           (0.015058 0 0)           (-0.007865 -0.012683 0.0020091)
      9.3836           (0.015058 0 0)           (-0.007865 -0.012683 0.0020091)
      9.4178           (0.015058 0 0)           (-0.007865 -0.012683 0.0020091)
      9.4521           (0.015058 0 0)           (-0.007865 -0.012683 0.0020091)
      9.4863           (0.015058 0 0)           (-0.007865 -0.012683 0.0020091)
      9.5205           (0.015058 0 0)           (-0.007865 -0.012683 0.0020091)
      9.5548           (0.015058 0 0)           (-0.007865 -0.012683 0.0020091)
       9.589           (0.015058 0 0)           (-0.007865 -0.012683 0.0020092)
      9.6233           (0.015058 0 0)           (-0.007865 -0.012683 0.0020092)
      9.6575           (0.015058 0 0)           (-0.007865 -0.012683 0.0020092)
      9.6918           (0.015058 0 0)           (-0.007865 -0.012683 0.0020092)
       9.726           (0.015058 0 0)           (-0.007865 -0.012683 0.0020092)
      9.7603           (0.015058 0 0)           (-0.007865 -0.012683 0.0020092)
      9.7945           (0.015058 0 0)           (-0.007865 -0.012683 0.0020092)
      9.8288           (0.015058 0 0)           (-0.007865 -0.012683 0.0020091)
       9.863           (0.015058 0 0)           (-0.007865 -0.012683 0.0020092)
      9.8973           (0.015058 0 0)           (-0.007865 -0.012683 0.0020092)
      9.9315           (0.015058 0 0)           (-0.007865 -0.012683 0.0020092)
      9.9658           (0.015058 0 0)           (-0.007865 -0.012683 0.0020092)
          10           (0.015058 0 0)           (-0.007865 -0.012683 0.0020092)
      10.034           (0.015058 0 0)           (-0.007865 -0.012683 0.0020092)
      10.068           (0.015058 0 0)           (-0.007865 -0.012683 0.0020092)
      10.103           (0.015058 0 0)           (-0.007865 -0.012683 0.0020092)
      10.137           (0.015058 0 0)           (-0.007865 -0.012683 0.0020092)
      10.171           (0.015058 0 0)           (-0.007865 -0.012683 0.0020092)
      10.205           (0.015058 0 0)           (-0.007865 -0.012683 0.0020092)
       10.24           (0.015058 0 0)           (-0.007865 -0.012683 0.0020092)
      10.274           (0.015058 0 0)           (-0.007865 -0.012683 0.0020092)
      10.308           (0.015058 0 0)           (-0.007865 -0.012683 0.0020092)
      10.342           (0.015058 0 0)           (-0.007865 -0.012683 0.0020092)
      10.377           (0.015058 0 0)           (-0.007865 -0.012683 0.0020092)
      10.411           (0.015058 0 0)           (-0.007865 -0.012683 0.0020092)
      10.445           (0.015058 0 0)           (-0.007865 -0.012683 0.0020092)
      10.479           (0.015058 0 0)           (-0.007865 -0.012683 0.0020092)
      10.514           (0.015058 0 0)           (-0.007865 -0.012683 0.0020092)
      10.548           (0.015058 0 0)           (-0.007865 -0.012683 0.0020092)
      10.582           (0.015058 0 0)           (-0.007865 -0.012683 0.0020092)
      10.616           (0.015058 0 0)           (-0.007865 -0.012683 0.0020092)
      10.651           (0.015058 0 0)           (-0.007865 -0.012683 0.0020092)
      10.685           (0.015058 0 0)           (-0.007865 -0.012683 0.0020092)
      10.719           (0.015058 0 0)           (-0.007865 -0.012683 0.0020091)
      10.753           (0.015058 0 0)           (-0.007865 -0.012683 0.0020091)
      10.788           (0.015058 0 0)           (-0.007865 -0.012683 0.0020091)
      10.822           (0.015058 0 0)           (-0.007865 -0.012683 0.0020091)
      10.856           (0.015058 0 0)           (-0.007865 -0.012683 0.0020092)
       10.89           (0.015058 0 0)           (-0.007865 -0.012683 0.0020092)
      10.925           (0.015058 0 0)           (-0.007865 -0.012683 0.0020092)
      10.959           (0.015058 0 0)           (-0.007865 -0.012683 0.0020092)
      10.993           (0.015058 0 0)           (-0.007865 -0.012683 0.0020092)
      11.027           (0.015058 0 0)           (-0.007865 -0.012683 0.0020092)