#         Time        inlet       outlet
      1.2e-06            (0.0150581 0 0)            (-0.00784699 -0.0126958 0.00198161)
     2.64e-06            (0.0150581 0 0)            (-0.00784944 -0.0126964 0.00198206)
    4.368e-06            (0.0150581 0 0)            (-0.00785007 -0.012696 0.00198214)
   6.4416e-06            (0.0150581 0 0)            (-0.00785041 -0.0126957 0.00198219)
  8.92992e-06            (0.0150581 0 0)            (-0.00785064 -0.0126956 0.00198222)
  1.19159e-05            (0.0150581 0 0)            (-0.00785083 -0.0126955 0.00198224)
  1.54991e-05            (0.0150581 0 0)            (-0.00785099 -0.0126954 0.00198226)
  1.97989e-05            (0.0150581 0 0)            (-0.00785114 -0.0126953 0.00198228)
  2.49587e-05            (0.0150581 0 0)            (-0.00785127 -0.0126952 0.0019823)
  3.11504e-05            (0.0150581 0 0)            (-0.0078514 -0.0126951 0.00198232)
  3.85805e-05            (0.0150581 0 0)            (-0.00785153 -0.012695 0.00198233)
  4.74965e-05            (0.0150581 0 0)            (-0.00785166 -0.012695 0.00198235)
  5.81958e-05            (0.0150581 0 0)            (-0.00785179 -0.0126949 0.00198237)
   7.1035e-05            (0.0150581 0 0)            (-0.00785193 -0.0126948 0.00198239)
   8.6442e-05            (0.0150581 0 0)            (-0.00785208 -0.0126947 0.00198241)
   0.00010493            (0.0150581 0 0)            (-0.00785223 -0.0126946 0.00198243)
  0.000127116            (0.0150581 0 0)            (-0.0078524 -0.0126945 0.00198245)
   0.00015374            (0.0150581 0 0)            (-0.00785258 -0.0126944 0.00198247)
  0.000185688            (0.0150581 0 0)            (-0.00785278 -0.0126943 0.0019825)
  0.000224025            (0.0150581 0 0)            (-0.00785301 -0.0126941 0.00198253)
   0.00027003            (0.0150581 0 0)            (-0.00785326 -0.012694 0.00198256)
  0.000325236            (0.0150581 0 0)            (-0.00785355 -0.0126938 0.0019826)
  0.000391483            (0.0150581 0 0)            (-0.00785388 -0.0126936 0.00198264)
   0.00047098            (0.0150581 0 0)            (-0.00785425 -0.0126934 0.00198269)
  0.000566376            (0.0150581 0 0)            (-0.00785469 -0.0126931 0.00198275)
   0.00068085            (0.0150581 0 0)            (-0.00785519 -0.0126928 0.00198281)
  0.000818221            (0.0150581 0 0)            (-0.00785577 -0.0126924 0.00198289)
  0.000983063            (0.0150581 0 0)            (-0.00785645 -0.012692 0.00198298)
   0.00118087            (0.0150581 0 0)            (-0.00785724 -0.0126915 0.00198308)
   0.00141824            (0.0150581 0 0)            (-0.00785815 -0.0126909 0.0019832)
    0.0017031            (0.0150581 0 0)            (-0.00785922 -0.0126902 0.00198334)
   0.00204491            (0.0150581 0 0)            (-0.00786045 -0.0126895 0.0019835)
   0.00245508            (0.0150581 0 0)            (-0.00786188 -0.0126886 0.00198368)
    0.0029473            (0.0150581 0 0)            (-0.00786352 -0.0126876 0.00198389)
   0.00353797            (0.0150581 0 0)            (-0.00786542 -0.0126864 0.00198414)
   0.00424679            (0.0150581 0 0)            (-0.00786762 -0.012685 0.00198443)
   0.00509742            (0.0150581 0 0)            (-0.00787017 -0.0126834 0.00198476)
   0.00611825            (0.0150581 0 0)            (-0.00787313 -0.0126816 0.00198514)
   0.00734314            (0.0150581 0 0)            (-0.00787653 -0.0126794 0.00198558)
   0.00881286            (0.0150581 0 0)            (-0.00788044 -0.012677 0.00198609)
    0.0105765            (0.0150581 0 0)            (-0.00788496 -0.0126741 0.00198667)
    0.0126925            (0.0150581 0 0)            (-0.00789015 -0.0126708 0.00198735)
    0.0152319            (0.0150581 0 0)            (-0.00789614 -0.012667 0.00198813)
    0.0182788            (0.0150581 0 0)            (-0.0079032 -0.0126626 0.00198904)
    0.0219337            (0.0150581 0 0)            (-0.00791148 -0.0126574 0.00199011)
    0.0263197            (0.0150581 0 0)            (-0.00792089 -0.0126515 0.00199133)
    0.0315829            (0.0150581 0 0)            (-0.00793144 -0.0126448 0.0019927)
     0.037896            (0.0150581 0 0)            (-0.00794332 -0.0126373 0.00199423)
    0.0454717            (0.0150581 0 0)            (-0.00795636 -0.012629 0.00199591)
    0.0545626            (0.0150581 0 0)            (-0.00797023 -0.0126202 0.00199772)
    0.0654797            (0.0150581 0 0)            (-0.00798489 -0.012611 0.00199961)
    0.0785686            (0.0150581 0 0)            (-0.00799973 -0.0126016 0.00200155)
     0.094292            (0.0150581 0 0)            (-0.00801457 -0.0125923 0.00200348)
      0.11316            (0.0150581 0 0)            (-0.00802871 -0.0125833 0.00200532)
     0.135784            (0.0150581 0 0)            (-0.00804172 -0.0125751 0.00200702)
     0.162808            (0.0150581 0 0)            (-0.0080531 -0.0125679 0.0020085)
     0.194015            (0.0150581 0 0)            (-0.00806245 -0.0125621 0.00200972)
     0.229096            (0.0150581 0 0)            (-0.00806974 -0.0125579 0.00201068)
     0.267263            (0.0150581 0 0)            (-0.0080748 -0.0125542 0.00201132)
     0.304529            (0.0150581 0 0)            (-0.00807856 -0.012552 0.00201183)
     0.340928            (0.0150581 0 0)            (-0.00808124 -0.0125504 0.00201217)
     0.377044            (0.0150581 0 0)            (-0.00808277 -0.0125486 0.00201233)
     0.412881            (0.0150581 0 0)            (-0.00808361 -0.0125476 0.0020125)
     0.448718            (0.0150581 0 0)            (-0.00808395 -0.0125482 0.00201285)
     0.484275            (0.0150581 0 0)            (-0.0080821 -0.0125493 0.00201311)
     0.519281            (0.0150581 0 0)            (-0.00807764 -0.0125518 0.00201334)
     0.554015            (0.0150581 0 0)            (-0.00807014 -0.0125565 0.00201358)
      0.58848            (0.0150581 0 0)            (-0.00805894 -0.0125635 0.00201381)
     0.622678            (0.0150581 0 0)            (-0.00804348 -0.0125727 0.00201393)
     0.656876            (0.0150581 0 0)            (-0.00802414 -0.0125847 0.00201402)
     0.691073            (0.0150581 0 0)            (-0.00800114 -0.0125986 0.00201396)
     0.725271            (0.0150581 0 0)            (-0.00797549 -0.0126142 0.00201381)
     0.759469            (0.0150581 0 0)            (-0.00794841 -0.0126308 0.00201356)
     0.793393            (0.0150581 0 0)            (-0.00792152 -0.0126477 0.0020133)
     0.827318            (0.0150581 0 0)            (-0.00789547 -0.0126637 0.00201293)
      0.86152            (0.0150581 0 0)            (-0.00787129 -0.0126785 0.00201251)
     0.895722            (0.0150581 0 0)            (-0.00785016 -0.0126917 0.00201214)
     0.929924            (0.0150581 0 0)            (-0.00783238 -0.0127027 0.0020118)
     0.964127            (0.0150581 0 0)            (-0.0078182 -0.0127113 0.00201147)
     0.998329            (0.0150581 0 0)            (-0.00780774 -0.0127178 0.00201123)
      1.03253            (0.0150581 0 0)            (-0.0078007 -0.0127222 0.00201105)
      1.06673            (0.0150581 0 0)            (-0.00779677 -0.0127246 0.00201093)
      1.10094            (0.0150581 0 0)            (-0.00779546 -0.0127253 0.00201086)
      1.13514            (0.0150581 0 0)            (-0.00779644 -0.0127248 0.00201086)
      1.16934            (0.0150581 0 0)            (-0.00779914 -0.0127232 0.0020109)
      1.20354            (0.0150581 0 0)            (-0.00780299 -0.0127206 0.00201091)
      1.23775            (0.0150581 0 0)            (-0.00780788 -0.0127178 0.00201097)
      1.27195            (0.0150581 0 0)            (-0.00781323 -0.0127146 0.00201102)
      1.30615            (0.0150581 0 0)            (-0.00781869 -0.0127111 0.00201102)
      1.34035            (0.0150581 0 0)            (-0.00782422 -0.0127077 0.00201102)
      1.37455            (0.0150581 0 0)            (-0.00782943 -0.0127043 0.00201097)
      1.40876            (0.0150581 0 0)            (-0.00783454 -0.0127015 0.00201095)
      1.44296            (0.0150581 0 0)            (-0.00783905 -0.0126986 0.00201086)
      1.47716            (0.0150581 0 0)            (-0.00784321 -0.0126962 0.00201078)
      1.51136            (0.0150581 0 0)            (-0.0078468 -0.0126938 0.00201065)
      1.54557            (0.0150581 0 0)            (-0.00785005 -0.012692 0.00201055)
      1.57977            (0.0150581 0 0)            (-0.00785275 -0.0126902 0.00201041)
      1.61397            (0.0150581 0 0)            (-0.00785512 -0.0126889 0.00201029)
      1.64817            (0.0150581 0 0)            (-0.00785718 -0.0126878 0.00201018)
      1.68238            (0.0150581 0 0)            (-0.00785877 -0.0126868 0.00201005)
      1.71658            (0.0150581 0 0)            (-0.00786011 -0.0126859 0.00200993)
      1.75078            (0.0150581 0 0)            (-0.00786118 -0.0126852 0.00200981)
      1.78498            (0.0150581 0 0)            (-0.00786206 -0.0126847 0.00200969)
      1.81918            (0.0150581 0 0)            (-0.00786276 -0.0126842 0.00200959)
      1.85339            (0.0150581 0 0)            (-0.00786335 -0.0126839 0.00200952)
      1.88759            (0.0150581 0 0)            (-0.00786381 -0.0126837 0.00200945)
      1.92179            (0.0150581 0 0)            (-0.00786415 -0.0126835 0.00200939)
      1.95599            (0.0150581 0 0)            (-0.00786443 -0.0126834 0.00200934)
       1.9902            (0.0150581 0 0)            (-0.00786463 -0.0126833 0.0020093)
       2.0244            (0.0150581 0 0)            (-0.00786479 -0.0126833 0.00200928)
       2.0586            (0.0150581 0 0)            (-0.00786489 -0.0126832 0.00200924)
       2.0928            (0.0150581 0 0)            (-0.00786501 -0.0126831 0.00200922)
      2.12701            (0.0150581 0 0)            (-0.00786507 -0.0126831 0.0020092)
      2.16121            (0.0150581 0 0)            (-0.00786499 -0.0126828 0.00200915)
      2.19541            (0.0150581 0 0)            (-0.0078651 -0.012683 0.00200915)
      2.22961            (0.0150581 0 0)            (-0.0078651 -0.012683 0.00200914)
      2.26381            (0.0150581 0 0)            (-0.00786509 -0.012683 0.00200913)
      2.29802            (0.0150581 0 0)            (-0.00786508 -0.012683 0.00200912)
      2.33222            (0.0150581 0 0)            (-0.00786508 -0.012683 0.00200912)
      2.36642            (0.0150581 0 0)            (-0.00786507 -0.012683 0.00200911)
      2.40062            (0.0150581 0 0)            (-0.00786507 -0.012683 0.00200912)
      2.43483            (0.0150581 0 0)            (-0.00786506 -0.012683 0.00200911)
      2.46903            (0.0150581 0 0)            (-0.00786506 -0.012683 0.00200912)
      2.50323            (0.0150581 0 0)            (-0.00786505 -0.012683 0.00200912)
      2.53743            (0.0150581 0 0)            (-0.00786506 -0.012683 0.00200912)
      2.57164            (0.0150581 0 0)            (-0.00786506 -0.012683 0.00200912)
      2.60584            (0.0150581 0 0)            (-0.00786504 -0.012683 0.00200912)
      2.64004            (0.0150581 0 0)            (-0.00786504 -0.012683 0.00200912)
      2.67424            (0.0150581 0 0)            (-0.00786504 -0.012683 0.00200912)
      2.70844            (0.0150581 0 0)            (-0.00786503 -0.012683 0.00200913)
      2.74265            (0.0150581 0 0)            (-0.00786503 -0.012683 0.00200913)
      2.77685            (0.0150581 0 0)            (-0.00786503 -0.012683 0.00200914)
      2.81105            (0.0150581 0 0)            (-0.00786503 -0.012683 0.00200914)
      2.84525            (0.0150581 0 0)            (-0.00786503 -0.012683 0.00200914)
      2.87946            (0.0150581 0 0)            (-0.00786502 -0.012683 0.00200914)
      2.91366            (0.0150581 0 0)            (-0.00786502 -0.012683 0.00200914)
      2.94786            (0.0150581 0 0)            (-0.00786502 -0.012683 0.00200914)
      2.98206            (0.0150581 0 0)            (-0.00786501 -0.012683 0.00200914)
      3.01627            (0.0150581 0 0)            (-0.00786501 -0.012683 0.00200914)
      3.05047            (0.0150581 0 0)            (-0.00786501 -0.012683 0.00200914)
      3.08467            (0.0150581 0 0)            (-0.00786502 -0.012683 0.00200915)
      3.11887            (0.0150581 0 0)            (-0.00786502 -0.012683 0.00200915)
      3.15307            (0.0150581 0 0)            (-0.00786502 -0.012683 0.00200915)
      3.18728            (0.0150581 0 0)            (-0.00786502 -0.012683 0.00200915)
      3.22148            (0.0150581 0 0)            (-0.00786501 -0.012683 0.00200915)
      3.25568            (0.0150581 0 0)            (-0.00786501 -0.012683 0.00200914)
      3.28988            (0.0150581 0 0)            (-0.00786501 -0.012683 0.00200915)
      3.32409            (0.0150581 0 0)            (-0.00786502 -0.012683 0.00200915)
      3.35829            (0.0150581 0 0)            (-0.00786502 -0.012683 0.00200915)
      3.39249            (0.0150581 0 0)            (-0.00786502 -0.0126831 0.00200915)
      3.42669            (0.0150581 0 0)            (-0.00786503 -0.0126831 0.00200915)
       3.4609            (0.0150581 0 0)            (-0.00786502 -0.0126831 0.00200916)
       3.4951            (0.0150581 0 0)            (-0.00786502 -0.012683 0.00200915)
       3.5293            (0.0150581 0 0)            (-0.00786502 -0.012683 0.00200915)
       3.5635            (0.0150581 0 0)            (-0.00786502 -0.012683 0.00200915)
      3.59771            (0.0150581 0 0)            (-0.00786501 -0.012683 0.00200915)
      3.63191            (0.0150581 0 0)            (-0.00786502 -0.012683 0.00200916)
      3.66611            (0.0150581 0 0)            (-0.00786502 -0.0126831 0.00200918)
      3.70031            (0.0150581 0 0)            (-0.00786501 -0.012683 0.00200918)
      3.73451            (0.0150581 0 0)            (-0.007865 -0.012683 0.0020092)
      3.76872            (0.0150581 0 0)            (-0.007865 -0.012683 0.00200919)
      3.80292            (0.0150581 0 0)            (-0.00786501 -0.012683 0.00200919)
      3.83712            (0.0150581 0 0)            (-0.007865 -0.012683 0.00200919)
      3.87132            (0.0150581 0 0)            (-0.00786501 -0.012683 0.00200921)
      3.90553            (0.0150581 0 0)            (-0.00786505 -0.0126831 0.00200921)
      3.93973            (0.0150581 0 0)            (-0.00786502 -0.012683 0.00200918)
      3.97393            (0.0150581 0 0)            (-0.00786502 -0.0126831 0.00200912)
      4.00813            (0.0150581 0 0)            (-0.00786503 -0.0126831 0.00200911)
      4.04234            (0.0150581 0 0)            (-0.00786502 -0.0126831 0.00200911)
      4.07654            (0.0150581 0 0)            (-0.00786501 -0.012683 0.00200913)
      4.11074            (0.0150581 0 0)            (-0.00786501 -0.012683 0.00200913)
      4.14494            (0.0150581 0 0)            (-0.00786501 -0.012683 0.00200914)
      4.17914            (0.0150581 0 0)            (-0.00786501 -0.012683 0.00200914)
      4.21335            (0.0150581 0 0)            (-0.007865 -0.012683 0.00200915)
      4.24755            (0.0150581 0 0)            (-0.00786501 -0.012683 0.00200915)
      4.28175            (0.0150581 0 0)            (-0.00786501 -0.012683 0.00200915)
      4.31595            (0.0150581 0 0)            (-0.007865 -0.012683 0.00200913)
      4.35016            (0.0150581 0 0)            (-0.007865 -0.012683 0.00200914)
      4.38436            (0.0150581 0 0)            (-0.00786501 -0.012683 0.00200915)
      4.41856            (0.0150581 0 0)            (-0.00786501 -0.012683 0.00200915)
      4.45276            (0.0150581 0 0)            (-0.00786501 -0.012683 0.00200919)
      4.48697            (0.0150581 0 0)            (-0.00786499 -0.012683 0.00200926)
      4.52117            (0.0150581 0 0)            (-0.00786499 -0.012683 0.00200928)
      4.55537            (0.0150581 0 0)            (-0.00786505 -0.0126831 0.00200927)
      4.58957            (0.0150581 0 0)            (-0.00786499 -0.012683 0.00200922)
      4.62377            (0.0150581 0 0)            (-0.00786499 -0.012683 0.00200919)
      4.65798            (0.0150581 0 0)            (-0.00786503 -0.0126831 0.00200919)
      4.69218            (0.0150581 0 0)            (-0.00786502 -0.0126831 0.00200917)
      4.72638            (0.0150581 0 0)            (-0.007865 -0.012683 0.00200917)
      4.76058            (0.0150581 0 0)            (-0.00786499 -0.012683 0.00200916)
      4.79479            (0.0150581 0 0)            (-0.00786501 -0.012683 0.00200917)
      4.82899            (0.0150581 0 0)            (-0.00786501 -0.012683 0.00200917)
      4.86319            (0.0150581 0 0)            (-0.00786501 -0.012683 0.00200917)
      4.89739            (0.0150581 0 0)            (-0.00786502 -0.0126831 0.00200917)
       4.9316            (0.0150581 0 0)            (-0.00786502 -0.0126831 0.00200917)
       4.9658            (0.0150581 0 0)            (-0.00786501 -0.012683 0.00200917)
            5            (0.0150581 0 0)            (-0.00786501 -0.012683 0.00200917)
      5.03425            (0.0150581 0 0)            (-0.007865 -0.012683 0.00200917)
      5.06849            (0.0150581 0 0)            (-0.00786499 -0.012683 0.00200917)
      5.10274            (0.0150581 0 0)            (-0.007865 -0.012683 0.00200917)
      5.13699            (0.0150581 0 0)            (-0.00786501 -0.012683 0.00200917)
      5.17123            (0.0150581 0 0)            (-0.00786502 -0.012683 0.00200917)
      5.20548            (0.0150581 0 0)            (-0.00786502 -0.0126831 0.00200917)
      5.23973            (0.0150581 0 0)            (-0.00786502 -0.012683 0.00200916)
      5.27397            (0.0150581 0 0)            (-0.00786502 -0.0126831 0.00200916)
      5.30822            (0.0150581 0 0)            (-0.00786501 -0.012683 0.00200915)
      5.34247            (0.0150581 0 0)            (-0.00786501 -0.012683 0.00200915)
      5.37671            (0.0150581 0 0)            (-0.00786501 -0.012683 0.00200916)
      5.41096            (0.0150581 0 0)            (-0.007865 -0.012683 0.00200916)
      5.44521            (0.0150581 0 0)            (-0.007865 -0.012683 0.00200916)
      5.47945            (0.0150581 0 0)            (-0.007865 -0.012683 0.00200916)
       5.5137            (0.0150581 0 0)            (-0.00786501 -0.012683 0.00200914)
      5.54795            (0.0150581 0 0)            (-0.00786501 -0.012683 0.00200914)
      5.58219            (0.0150581 0 0)            (-0.00786502 -0.0126831 0.00200917)
      5.61644            (0.0150581 0 0)            (-0.00786501 -0.012683 0.00200925)
      5.65068            (0.0150581 0 0)            (-0.00786501 -0.012683 0.00200924)
      5.68493            (0.0150581 0 0)            (-0.00786502 -0.0126831 0.00200921)
      5.71918            (0.0150581 0 0)            (-0.00786501 -0.012683 0.00200919)
      5.75342            (0.0150581 0 0)            (-0.007865 -0.012683 0.00200918)
      5.78767            (0.0150581 0 0)            (-0.00786499 -0.012683 0.00200917)
      5.82192            (0.0150581 0 0)            (-0.00786499 -0.012683 0.00200916)
      5.85616            (0.0150581 0 0)            (-0.007865 -0.012683 0.00200916)
      5.89041            (0.0150581 0 0)            (-0.00786501 -0.012683 0.00200916)
      5.92466            (0.0150581 0 0)            (-0.007865 -0.012683 0.00200915)
       5.9589            (0.0150581 0 0)            (-0.007865 -0.012683 0.00200915)
      5.99315            (0.0150581 0 0)            (-0.00786501 -0.012683 0.00200911)
       6.0274            (0.0150581 0 0)            (-0.00786502 -0.0126831 0.00200913)
      6.06164            (0.0150581 0 0)            (-0.00786502 -0.0126831 0.00200912)
      6.09589            (0.0150581 0 0)            (-0.00786502 -0.0126831 0.0020091)
      6.13014            (0.0150581 0 0)            (-0.00786499 -0.012683 0.00200911)
      6.16438            (0.0150581 0 0)            (-0.00786501 -0.012683 0.00200913)
      6.19863            (0.0150581 0 0)            (-0.00786501 -0.012683 0.00200914)
      6.23288            (0.0150581 0 0)            (-0.00786499 -0.012683 0.00200914)
      6.26712            (0.0150581 0 0)            (-0.007865 -0.012683 0.00200914)
      6.30137            (0.0150581 0 0)            (-0.00786501 -0.012683 0.00200915)
      6.33562            (0.0150581 0 0)            (-0.00786503 -0.0126831 0.00200916)
      6.36986            (0.0150581 0 0)            (-0.00786502 -0.0126831 0.00200916)
      6.40411            (0.0150581 0 0)            (-0.007865 -0.012683 0.00200912)
      6.43836            (0.0150581 0 0)            (-0.00786501 -0.012683 0.00200912)
       6.4726            (0.0150581 0 0)            (-0.00786502 -0.012683 0.00200914)
      6.50685            (0.0150581 0 0)            (-0.00786502 -0.0126831 0.00200915)
       6.5411            (0.0150581 0 0)            (-0.00786502 -0.0126831 0.00200915)
      6.57534            (0.0150581 0 0)            (-0.00786502 -0.0126831 0.00200916)
      6.60959            (0.0150581 0 0)            (-0.00786501 -0.012683 0.00200915)
      6.64384            (0.0150581 0 0)            (-0.00786502 -0.0126831 0.00200918)
      6.67808            (0.0150581 0 0)            (-0.00786501 -0.012683 0.00200917)
      6.71233            (0.0150581 0 0)            (-0.007865 -0.012683 0.00200916)
      6.74658            (0.0150581 0 0)            (-0.007865 -0.012683 0.00200915)
      6.78082            (0.0150581 0 0)            (-0.007865 -0.012683 0.00200914)
      6.81507            (0.0150581 0 0)            (-0.00786501 -0.012683 0.00200915)
      6.84932            (0.0150581 0 0)            (-0.00786501 -0.012683 0.00200915)
      6.88356            (0.0150581 0 0)            (-0.00786501 -0.012683 0.00200915)
      6.91781            (0.0150581 0 0)            (-0.00786501 -0.012683 0.00200915)
      6.95205            (0.0150581 0 0)            (-0.00786501 -0.012683 0.00200915)
       6.9863            (0.0150581 0 0)            (-0.00786501 -0.012683 0.00200915)
      7.02055            (0.0150581 0 0)            (-0.007865 -0.012683 0.00200915)
      7.05479            (0.0150581 0 0)            (-0.00786501 -0.012683 0.00200916)
      7.08904            (0.0150581 0 0)            (-0.00786501 -0.012683 0.00200916)
      7.12329            (0.0150581 0 0)            (-0.00786501 -0.012683 0.00200916)
      7.15753            (0.0150581 0 0)            (-0.00786502 -0.012683 0.00200916)
      7.19178            (0.0150581 0 0)            (-0.00786501 -0.012683 0.00200916)
      7.22603            (0.0150581 0 0)            (-0.00786501 -0.012683 0.00200916)
      7.26027            (0.0150581 0 0)            (-0.00786501 -0.012683 0.00200915)
      7.29452            (0.0150581 0 0)            (-0.00786501 -0.012683 0.00200915)
      7.32877            (0.0150581 0 0)            (-0.00786501 -0.012683 0.00200915)
      7.36301            (0.0150581 0 0)            (-0.00786501 -0.012683 0.00200915)
      7.39726            (0.0150581 0 0)            (-0.007865 -0.012683 0.00200914)
      7.43151            (0.0150581 0 0)            (-0.007865 -0.012683 0.00200914)
      7.46575            (0.0150581 0 0)            (-0.00786501 -0.012683 0.00200914)
          7.5            (0.0150581 0 0)            (-0.00786501 -0.012683 0.00200914)
      7.53425            (0.0150581 0 0)            (-0.00786501 -0.012683 0.00200914)
      7.56849            (0.0150581 0 0)            (-0.007865 -0.012683 0.00200914)
      7.60274            (0.0150581 0 0)            (-0.007865 -0.012683 0.00200914)
      7.63699            (0.0150581 0 0)            (-0.00786501 -0.012683 0.00200915)
      7.67123            (0.0150581 0 0)            (-0.00786501 -0.012683 0.00200915)
      7.70548            (0.0150581 0 0)            (-0.00786502 -0.0126831 0.00200915)
      7.73973            (0.0150581 0 0)            (-0.00786499 -0.012683 0.00200915)
      7.77397            (0.0150581 0 0)            (-0.007865 -0.012683 0.00200915)
      7.80822            (0.0150581 0 0)            (-0.00786501 -0.012683 0.00200915)
      7.84247            (0.0150581 0 0)            (-0.007865 -0.012683 0.00200914)
      7.87671            (0.0150581 0 0)            (-0.00786502 -0.0126831 0.00200915)
      7.91096            (0.0150581 0 0)            (-0.007865 -0.012683 0.00200915)
      7.94521            (0.0150581 0 0)            (-0.007865 -0.012683 0.00200916)
      7.97945            (0.0150581 0 0)            (-0.00786501 -0.012683 0.00200919)
       8.0137            (0.0150581 0 0)            (-0.007865 -0.012683 0.00200919)
      8.04795            (0.0150581 0 0)            (-0.007865 -0.012683 0.00200918)
      8.08219            (0.0150581 0 0)            (-0.007865 -0.012683 0.00200917)
      8.11644            (0.0150581 0 0)            (-0.00786501 -0.012683 0.00200917)
      8.15068            (0.0150581 0 0)            (-0.00786501 -0.012683 0.00200917)
      8.18493            (0.0150581 0 0)            (-0.00786501 -0.012683 0.00200916)
      8.21918            (0.0150581 0 0)            (-0.00786501 -0.012683 0.00200915)
      8.25342            (0.0150581 0 0)            (-0.007865 -0.012683 0.00200915)
      8.28767            (0.0150581 0 0)            (-0.00786501 -0.012683 0.00200915)
      8.32192            (0.0150581 0 0)            (-0.00786501 -0.012683 0.00200915)
      8.35616            (0.0150581 0 0)            (-0.00786501 -0.012683 0.00200915)
      8.39041            (0.0150581 0 0)            (-0.00786502 -0.0126831 0.00200915)
      8.42466            (0.0150581 0 0)            (-0.00786501 -0.012683 0.00200915)
       8.4589            (0.0150581 0 0)            (-0.00786501 -0.0126831 0.00200915)
      8.49315            (0.0150581 0 0)            (-0.007865 -0.012683 0.00200915)
       8.5274            (0.0150581 0 0)            (-0.007865 -0.012683 0.00200913)
      8.56164            (0.0150581 0 0)            (-0.00786501 -0.012683 0.00200913)
      8.59589            (0.0150581 0 0)            (-0.00786502 -0.0126831 0.00200914)
      8.63014            (0.0150581 0 0)            (-0.00786503 -0.0126831 0.00200915)
      8.66438            (0.0150581 0 0)            (-0.00786502 -0.0126831 0.00200914)
      8.69863            (0.0150581 0 0)            (-0.00786502 -0.0126831 0.00200914)
      8.73288            (0.0150581 0 0)            (-0.00786501 -0.012683 0.00200913)
      8.76712            (0.0150581 0 0)            (-0.007865 -0.012683 0.00200912)
      8.80137            (0.0150581 0 0)            (-0.00786501 -0.012683 0.00200913)
      8.83562            (0.0150581 0 0)            (-0.007865 -0.012683 0.00200913)
      8.86986            (0.0150581 0 0)            (-0.007865 -0.012683 0.00200914)
      8.90411            (0.0150581 0 0)            (-0.00786502 -0.0126831 0.00200916)
      8.93836            (0.0150581 0 0)            (-0.00786502 -0.0126831 0.00200916)
       8.9726            (0.0150581 0 0)            (-0.00786501 -0.012683 0.00200915)
      9.00685            (0.0150581 0 0)            (-0.00786502 -0.0126831 0.00200916)
       9.0411            (0.0150581 0 0)            (-0.00786501 -0.012683 0.00200916)
      9.07534            (0.0150581 0 0)            (-0.007865 -0.012683 0.00200914)
      9.10959            (0.0150581 0 0)            (-0.00786501 -0.012683 0.00200914)
      9.14384            (0.0150581 0 0)            (-0.00786505 -0.0126831 0.00200916)
      9.17808            (0.0150581 0 0)            (-0.00786501 -0.012683 0.00200916)
      9.21233            (0.0150581 0 0)            (-0.00786499 -0.012683 0.00200916)
      9.24658            (0.0150581 0 0)            (-0.007865 -0.012683 0.00200918)
      9.28082            (0.0150581 0 0)            (-0.00786501 -0.012683 0.00200917)
      9.31507            (0.0150581 0 0)            (-0.007865 -0.012683 0.00200917)
      9.34932            (0.0150581 0 0)            (-0.00786503 -0.0126831 0.00200918)
      9.38356            (0.0150581 0 0)            (-0.00786501 -0.012683 0.00200917)
      9.41781            (0.0150581 0 0)            (-0.00786498 -0.012683 0.00200916)
      9.45205            (0.0150581 0 0)            (-0.00786499 -0.012683 0.00200915)
       9.4863            (0.0150581 0 0)            (-0.00786503 -0.0126831 0.00200916)
      9.52055            (0.0150581 0 0)            (-0.00786501 -0.012683 0.00200915)
      9.55479            (0.0150581 0 0)            (-0.007865 -0.012683 0.00200914)
      9.58904            (0.0150581 0 0)            (-0.00786503 -0.0126831 0.00200915)
      9.62329            (0.0150581 0 0)            (-0.00786502 -0.0126831 0.00200914)
      9.65753            (0.0150581 0 0)            (-0.007865 -0.012683 0.00200913)
      9.69178            (0.0150581 0 0)            (-0.007865 -0.012683 0.00200913)
      9.72603            (0.0150581 0 0)            (-0.007865 -0.012683 0.00200913)
      9.76027            (0.0150581 0 0)            (-0.00786499 -0.012683 0.00200913)
      9.79452            (0.0150581 0 0)            (-0.007865 -0.012683 0.00200913)
      9.82877            (0.0150581 0 0)            (-0.00786501 -0.012683 0.00200913)
      9.86301            (0.0150581 0 0)            (-0.00786502 -0.0126831 0.00200914)
      9.89726            (0.0150581 0 0)            (-0.00786502 -0.0126831 0.00200914)
      9.93151            (0.0150581 0 0)            (-0.00786502 -0.0126831 0.00200913)
      9.96575            (0.0150581 0 0)            (-0.00786501 -0.012683 0.00200913)
           10            (0.0150581 0 0)            (-0.007865 -0.012683 0.00200912)
      10.0342            (0.0150581 0 0)            (-0.007865 -0.012683 0.00200912)