# Region type : patch outlet
# Faces       : 320
# Area        : 1.945340e-05
# Scale factor: 1.000000e+00
# Time        	areaAverage(s)
1.2e-06       	0.000000e+00
2.64e-06      	0.000000e+00
4.368e-06     	0.000000e+00
6.4416e-06    	0.000000e+00
8.92992e-06   	0.000000e+00
1.19159e-05   	0.000000e+00
1.54991e-05   	0.000000e+00
1.97989e-05   	0.000000e+00
2.49587e-05   	0.000000e+00
3.11504e-05   	0.000000e+00
3.85805e-05   	0.000000e+00
4.74965e-05   	0.000000e+00
5.81958e-05   	0.000000e+00
7.1035e-05    	0.000000e+00
8.6442e-05    	0.000000e+00
0.00010493    	0.000000e+00
0.000127116   	0.000000e+00
0.00015374    	0.000000e+00
0.000185688   	0.000000e+00
0.000224025   	0.000000e+00
0.00027003    	0.000000e+00
0.000325236   	0.000000e+00
0.000391483   	0.000000e+00
0.00047098    	0.000000e+00
0.000566376   	0.000000e+00
0.00068085    	0.000000e+00
0.000818221   	0.000000e+00
0.000983063   	0.000000e+00
0.00118087    	0.000000e+00
0.00141824    	0.000000e+00
0.0017031     	0.000000e+00
0.00204491    	0.000000e+00
0.00245508    	0.000000e+00
0.0029473     	0.000000e+00
0.00353797    	0.000000e+00
0.00424679    	0.000000e+00
0.00509742    	0.000000e+00
0.00611825    	2.285765e-318
0.00734314    	-3.508441e-300
0.00881286    	2.342491e-283
0.0105765     	-1.777335e-265
0.0126925     	-5.584517e-248
0.0152319     	1.179337e-229
0.0182788     	-8.835138e-213
0.0219337     	4.425982e-196
0.0263197     	-2.263939e-179
0.0315829     	-2.348373e-162
0.037896      	-2.595940e-147
0.0454717     	9.377305e-132
0.0545626     	1.774243e-117
0.0654797     	3.361462e-104
0.0785686     	6.957307e-92
0.094292      	1.188155e-80
0.11316       	1.680475e-70
0.135784      	1.605464e-61
0.162077      	1.543241e-54
0.192127      	3.969080e-49
0.225985      	7.180211e-45
0.263576      	1.197977e-41
0.300292      	-1.903248e-40
0.336724      	-1.911620e-39
0.372873      	-8.470711e-39
0.408742      	-2.363187e-38
0.444894      	-2.765268e-38
0.481046      	1.732406e-37
0.517489      	1.499704e-36
0.554231      	7.436584e-36
0.591279      	2.940282e-35
0.628641      	1.045082e-34
0.666325      	3.731494e-34
0.704009      	1.570943e-33
0.742027      	7.525692e-33
0.780044      	3.848988e-32
0.818408      	1.958870e-31
0.856771      	9.582495e-31
0.895134      	4.413862e-30
0.933497      	1.907820e-29
0.971861      	7.781387e-29
1.01022       	3.016246e-28
1.04859       	1.118192e-27
1.08695       	3.986355e-27
1.12531       	1.372665e-26
1.16368       	4.585144e-26
1.20204       	1.490580e-25
1.2404        	4.727914e-25
1.27877       	1.466994e-24
1.31713       	4.463411e-24
1.35549       	1.333243e-23
1.39386       	3.914745e-23
1.43222       	1.130522e-22
1.47058       	3.211925e-22
1.50895       	8.977527e-22
1.54731       	2.468831e-21
1.58567       	6.678826e-21
1.62404       	1.777395e-20
1.6624        	4.652650e-20
1.70076       	1.198276e-19
1.73913       	3.037050e-19
1.77749       	7.579214e-19
1.81585       	1.864289e-18
1.85421       	4.525550e-18
1.89258       	1.085746e-17
1.93094       	2.578526e-17
1.9693        	6.071018e-17
2.00767       	1.419407e-16
2.04603       	3.301853e-16
2.08439       	7.640947e-16
2.12276       	1.758479e-15
2.16112       	4.030202e-15
2.19948       	9.199318e-15
2.23785       	2.090086e-14
2.27621       	4.721051e-14
2.31457       	1.058786e-13
2.35294       	2.354233e-13
2.3913        	5.182625e-13
2.42966       	1.128077e-12
2.46803       	2.424892e-12
2.50639       	5.143451e-12
2.54475       	1.075760e-11
2.58312       	2.217421e-11
2.62148       	4.502531e-11
2.65984       	9.004226e-11
2.69821       	1.773317e-10
2.73657       	3.438708e-10
2.77493       	6.566214e-10
2.8133        	1.234767e-09
2.85166       	2.286945e-09
2.89002       	4.172530e-09
2.92839       	7.500458e-09
2.96675       	1.328646e-08
3.00511       	2.319876e-08
3.04348       	3.993322e-08
3.08184       	6.778249e-08
3.1202        	1.134735e-07
3.15856       	1.874075e-07
3.19693       	3.053940e-07
3.23529       	4.911699e-07
3.27365       	7.797968e-07
3.31202       	1.222378e-06
3.35038       	1.892238e-06
3.38874       	2.893401e-06
3.42711       	4.370926e-06
3.46547       	6.524900e-06
3.50383       	9.626969e-06
3.5422        	1.404143e-05
3.58056       	2.024945e-05
3.61892       	2.887682e-05
3.65729       	4.072933e-05
3.69565       	5.683119e-05
3.73401       	7.845878e-05
3.77238       	1.071871e-04
3.81074       	1.449290e-04
3.8491        	1.939776e-04
3.88747       	2.570362e-04
3.92583       	3.372580e-04
3.96419       	4.382413e-04
4.00256       	5.640410e-04
4.04092       	7.191676e-04
4.07928       	9.084963e-04
4.11765       	1.137228e-03
4.15601       	1.410839e-03
4.19437       	1.734903e-03
4.23274       	2.115013e-03
4.2711        	2.556468e-03
4.30946       	3.064280e-03
4.34783       	3.642812e-03
4.38619       	4.295544e-03
4.42455       	5.025093e-03
4.46291       	5.832627e-03
4.50128       	6.718091e-03
4.53964       	7.679713e-03
4.578         	8.714234e-03
4.61637       	9.816738e-03
4.65473       	1.098014e-02
4.69309       	1.219633e-02
4.73146       	1.345565e-02
4.76982       	1.474706e-02
4.80818       	1.605870e-02
4.84655       	1.737764e-02
4.88491       	1.869090e-02
4.92327       	1.998552e-02
4.96164       	2.124855e-02
5             	2.246759e-02
5.03846       	2.363414e-02
5.07692       	2.473412e-02
5.11538       	2.575849e-02
5.15385       	2.669908e-02
5.19231       	2.754943e-02
5.23077       	2.830350e-02
5.26923       	2.895704e-02
5.30769       	2.950672e-02
5.34615       	2.995214e-02
5.38462       	3.029655e-02
5.42308       	3.054415e-02
5.46154       	3.069896e-02
5.5           	3.076787e-02
5.53846       	3.075873e-02
5.57692       	3.067537e-02
5.61538       	3.052528e-02
5.65385       	3.031864e-02
5.69231       	3.006399e-02
5.73077       	2.977066e-02
5.76923       	2.944366e-02
5.80769       	2.908902e-02
5.84615       	2.871628e-02
5.88462       	2.833294e-02
5.92308       	2.794279e-02
5.96154       	2.754878e-02
6             	2.715633e-02
6.03846       	2.676965e-02
6.07692       	2.639243e-02
6.11538       	2.602850e-02
6.15385       	2.568013e-02
6.19231       	2.534605e-02
6.23077       	2.502883e-02
6.26923       	2.472838e-02
6.30769       	2.444442e-02
6.34615       	2.417580e-02
6.38462       	2.392279e-02
6.42308       	2.368629e-02
6.46154       	2.346517e-02
6.5           	2.325904e-02
6.53846       	2.306566e-02
6.57692       	2.288528e-02
6.61538       	2.271707e-02
6.65385       	2.255968e-02
6.69231       	2.241033e-02
6.73077       	2.226760e-02
6.76923       	2.212963e-02
6.80769       	2.199540e-02
6.84615       	2.186460e-02
6.88462       	2.173680e-02
6.92308       	2.161139e-02
6.96154       	2.148780e-02
7             	2.136514e-02
7.03846       	2.124391e-02
7.07692       	2.112300e-02
7.11538       	2.100197e-02
7.15385       	2.088077e-02
7.19231       	2.075784e-02
7.23077       	2.063296e-02
7.26923       	2.050541e-02
7.30769       	2.037516e-02
7.34615       	2.024221e-02
7.38462       	2.010672e-02
7.42308       	1.996818e-02
7.46154       	1.982651e-02
7.5           	1.968159e-02
7.53846       	1.953369e-02
7.57692       	1.938366e-02
7.61538       	1.923198e-02
7.65385       	1.907891e-02
7.69231       	1.892418e-02
7.73077       	1.876651e-02
7.76923       	1.860508e-02
7.80769       	1.844015e-02
7.84615       	1.827154e-02
7.88462       	1.809855e-02
7.92308       	1.792055e-02
7.96154       	1.773764e-02
8             	1.755083e-02
8.03846       	1.735998e-02
8.07692       	1.716605e-02
8.11538       	1.696858e-02
8.15385       	1.676791e-02
8.19231       	1.656449e-02
8.23077       	1.635854e-02
8.26923       	1.615035e-02
8.30769       	1.594026e-02
8.34615       	1.572824e-02
8.38462       	1.551433e-02
8.42308       	1.529851e-02
8.46154       	1.508086e-02
8.5           	1.486120e-02
8.53846       	1.464000e-02
8.57692       	1.441783e-02
8.61538       	1.419389e-02
8.65385       	1.396844e-02
8.69231       	1.374127e-02
8.73077       	1.351259e-02
8.76923       	1.328264e-02
8.80769       	1.305165e-02
8.84615       	1.281988e-02
8.88462       	1.258734e-02
8.92308       	1.235390e-02
8.96154       	1.211968e-02
9             	1.188504e-02
9.03846       	1.165046e-02
9.07692       	1.141593e-02
9.11538       	1.118192e-02
9.15385       	1.094875e-02
9.19231       	1.071666e-02
9.23077       	1.048599e-02
9.26923       	1.025665e-02
9.30769       	1.002826e-02
9.34615       	9.801183e-03
9.38462       	9.575890e-03
9.42308       	9.352847e-03
9.46154       	9.132034e-03
9.5           	8.913706e-03
9.53846       	8.697763e-03
9.57692       	8.484538e-03
9.61538       	8.273899e-03
9.65385       	8.065476e-03
9.69231       	7.858819e-03
9.73077       	7.654406e-03
9.76923       	7.452914e-03
9.80769       	7.254520e-03
9.84615       	7.059711e-03
9.88462       	6.869206e-03
9.92308       	6.683515e-03
9.96154       	6.503094e-03
10            	6.328195e-03
10.0385       	6.158873e-03
10.0769       	5.994765e-03
10.1154       	5.836251e-03
10.1538       	5.683166e-03
10.1923       	5.535369e-03
10.2308       	5.392738e-03
10.2692       	5.255090e-03
10.3077       	5.122112e-03
10.3462       	4.993801e-03
10.3846       	4.869858e-03
10.4231       	4.750469e-03
10.4615       	4.635302e-03
10.5          	4.524579e-03
10.5385       	4.418256e-03
10.5769       	4.316352e-03
10.6154       	4.218789e-03
10.6538       	4.125435e-03
10.6923       	4.036173e-03
10.7308       	3.950876e-03
10.7692       	3.869513e-03
10.8077       	3.792178e-03
10.8462       	3.718973e-03
10.8846       	3.649605e-03
10.9231       	3.584024e-03
10.9615       	3.522527e-03
11            	3.465132e-03
11.0385       	3.411738e-03
11.0769       	3.362567e-03
11.1154       	3.317536e-03
11.1538       	3.276627e-03
11.1923       	3.239719e-03
11.2308       	3.206792e-03
11.2692       	3.177882e-03
11.3077       	3.153014e-03
11.3462       	3.131828e-03
11.3846       	3.113930e-03
11.4231       	3.098974e-03
11.4615       	3.086571e-03
11.5          	3.076388e-03
11.5385       	3.068201e-03
11.5769       	3.062033e-03
11.6154       	3.057576e-03
11.6538       	3.054549e-03
11.6923       	3.052807e-03
11.7308       	3.052312e-03
11.7692       	3.052948e-03
11.8077       	3.054567e-03
11.8462       	3.057104e-03
11.8846       	3.060472e-03
11.9231       	3.064479e-03
11.9615       	3.069048e-03
12            	3.073997e-03
12.0385       	3.079201e-03
12.0769       	3.084549e-03
12.1154       	3.090005e-03
12.1538       	3.095605e-03
12.1923       	3.101213e-03
12.2308       	3.106739e-03
12.2692       	3.112138e-03
12.3077       	3.117398e-03
12.3462       	3.122459e-03
12.3846       	3.127352e-03
12.4231       	3.132013e-03
12.4615       	3.136574e-03
12.5          	3.140974e-03
12.5385       	3.145071e-03
12.5769       	3.148871e-03
12.6154       	3.152390e-03
12.6538       	3.155613e-03
12.6923       	3.158552e-03
12.7308       	3.161219e-03
12.7692       	3.163645e-03
12.8077       	3.165787e-03
12.8462       	3.167619e-03
12.8846       	3.169089e-03
12.9231       	3.170191e-03
12.9615       	3.170932e-03
13            	3.171307e-03
13.0385       	3.171364e-03
13.0769       	3.171045e-03
13.1154       	3.170307e-03
13.1538       	3.169133e-03
13.1923       	3.167526e-03
13.2308       	3.165477e-03
13.2692       	3.162971e-03
13.3077       	3.160099e-03
13.3462       	3.156810e-03
13.3846       	3.153073e-03
13.4231       	3.148896e-03
13.4615       	3.144270e-03
13.5          	3.139202e-03
13.5385       	3.133684e-03
13.5769       	3.127757e-03
13.6154       	3.121423e-03
13.6538       	3.114611e-03
13.6923       	3.107446e-03
13.7308       	3.099918e-03
13.7692       	3.092016e-03
13.8077       	3.083713e-03
13.8462       	3.075009e-03
13.8846       	3.065886e-03
13.9231       	3.056398e-03
13.9615       	3.046555e-03
14            	3.036351e-03
14.0385       	3.025778e-03
14.0769       	3.014842e-03
14.1154       	3.003567e-03
14.1538       	2.991967e-03
14.1923       	2.980012e-03
14.2308       	2.967796e-03
14.2692       	2.955325e-03
14.3077       	2.942612e-03
14.3462       	2.929671e-03
14.3846       	2.916525e-03
14.4231       	2.903219e-03
14.4615       	2.889726e-03
14.5          	2.876025e-03
14.5385       	2.862097e-03
14.5769       	2.848015e-03
14.6154       	2.833744e-03
14.6538       	2.819256e-03
14.6923       	2.804542e-03
14.7308       	2.789625e-03
14.7692       	2.774508e-03
14.8077       	2.759200e-03
14.8462       	2.743716e-03
14.8846       	2.728107e-03
14.9231       	2.712288e-03
14.9615       	2.696358e-03
15            	2.680349e-03
15.0385       	2.664304e-03
15.0769       	2.648199e-03
15.1154       	2.632074e-03
15.1538       	2.615920e-03
15.1923       	2.599740e-03
15.2308       	2.583595e-03
15.2692       	2.567424e-03
15.3077       	2.551208e-03
15.3462       	2.534958e-03
15.3846       	2.518638e-03
15.4231       	2.502304e-03
15.4615       	2.485964e-03
15.5          	2.469637e-03
15.5385       	2.453297e-03
15.5769       	2.437018e-03
15.6154       	2.420699e-03
15.6538       	2.404444e-03
15.6923       	2.388231e-03
15.7308       	2.372130e-03
15.7692       	2.356126e-03
15.8077       	2.340246e-03
15.8462       	2.324520e-03
15.8846       	2.308908e-03
15.9231       	2.293432e-03
15.9615       	2.278096e-03
16            	2.262914e-03
16.0385       	2.247915e-03
16.0769       	2.233050e-03
16.1154       	2.218381e-03
16.1538       	2.203890e-03
16.1923       	2.189599e-03
16.2308       	2.175526e-03
16.2692       	2.161654e-03
16.3077       	2.148012e-03
16.3462       	2.134565e-03
16.3846       	2.121344e-03
16.4231       	2.108298e-03
16.4615       	2.095330e-03
16.5          	2.082478e-03
16.5385       	2.069718e-03
16.5769       	2.057047e-03
16.6154       	2.044469e-03
16.6538       	2.031988e-03
16.6923       	2.019614e-03
16.7308       	2.007344e-03
16.7692       	1.995170e-03
16.8077       	1.983071e-03
16.8462       	1.971052e-03
16.8846       	1.959130e-03
16.9231       	1.947317e-03
16.9615       	1.935636e-03
17            	1.924103e-03
17.0385       	1.912722e-03
17.0769       	1.901471e-03
17.1154       	1.890365e-03
17.1538       	1.879404e-03
17.1923       	1.868565e-03
17.2308       	1.857831e-03
17.2692       	1.847200e-03
17.3077       	1.836669e-03
17.3462       	1.826290e-03
17.3846       	1.816025e-03
17.4231       	1.805860e-03
17.4615       	1.795755e-03
17.5          	1.785669e-03
17.5385       	1.775610e-03
17.5769       	1.765535e-03
17.6154       	1.755477e-03
17.6538       	1.745449e-03
17.6923       	1.735447e-03
17.7308       	1.725456e-03
17.7692       	1.715481e-03
17.8077       	1.705540e-03
17.8462       	1.695630e-03
17.8846       	1.685750e-03
17.9231       	1.675883e-03
17.9615       	1.666049e-03
18            	1.656265e-03
18.0385       	1.646534e-03
18.0769       	1.636875e-03
18.1154       	1.627289e-03
18.1538       	1.617783e-03
18.1923       	1.608348e-03
18.2308       	1.599027e-03
18.2692       	1.589775e-03
18.3077       	1.580611e-03
18.3462       	1.571538e-03
18.3846       	1.562555e-03
18.4231       	1.553677e-03
18.4615       	1.544844e-03
18.5          	1.536029e-03
18.5385       	1.527237e-03
18.5769       	1.518458e-03
18.6154       	1.509683e-03
18.6538       	1.500934e-03
18.6923       	1.492194e-03
18.7308       	1.483481e-03
18.7692       	1.474738e-03
18.8077       	1.466013e-03
18.8462       	1.457267e-03
18.8846       	1.448509e-03
18.9231       	1.439728e-03
18.9615       	1.430918e-03
19            	1.422091e-03
19.0385       	1.413259e-03
19.0769       	1.404423e-03
19.1154       	1.395589e-03
19.1538       	1.386759e-03
19.1923       	1.377935e-03
19.2308       	1.369131e-03
19.2692       	1.360336e-03
19.3077       	1.351569e-03
19.3462       	1.342830e-03
19.3846       	1.334111e-03
19.4231       	1.325421e-03
19.4615       	1.316747e-03
19.5          	1.308087e-03
19.5385       	1.299451e-03
19.5769       	1.290817e-03
19.6154       	1.282211e-03
19.6538       	1.273564e-03
19.6923       	1.264908e-03
19.7308       	1.256253e-03
19.7692       	1.247590e-03
19.8077       	1.238939e-03
19.8462       	1.230287e-03
19.8846       	1.221643e-03
19.9231       	1.213018e-03
19.9615       	1.204409e-03
20            	1.195818e-03
20.0385       	1.187246e-03
20.0769       	1.178701e-03
20.1154       	1.170162e-03
20.1538       	1.161630e-03
20.1923       	1.153118e-03
20.2308       	1.144627e-03
20.2692       	1.136178e-03
20.3077       	1.127743e-03
20.3462       	1.119339e-03
20.3846       	1.110982e-03
20.4231       	1.102670e-03
20.4615       	1.094407e-03
20.5          	1.086191e-03
20.5385       	1.078032e-03
20.5769       	1.069927e-03
20.6154       	1.061877e-03
20.6538       	1.053893e-03
20.6923       	1.045970e-03
20.7308       	1.038110e-03
20.7692       	1.030313e-03
20.8077       	1.022586e-03
20.8462       	1.014917e-03
20.8846       	1.007301e-03
20.9231       	9.997422e-04
20.9615       	9.922353e-04
21            	9.847766e-04
21.0385       	9.773593e-04
21.0769       	9.699839e-04
21.1154       	9.626388e-04
21.1538       	9.553215e-04
21.1923       	9.480442e-04
21.2308       	9.407893e-04
21.2692       	9.335279e-04
21.3077       	9.262635e-04
21.3462       	9.189939e-04
21.3846       	9.117261e-04
21.4231       	9.044570e-04
21.4615       	8.971894e-04
21.5          	8.899442e-04
21.5385       	8.827154e-04
21.5769       	8.754868e-04
21.6154       	8.682705e-04
21.6538       	8.610631e-04
21.6923       	8.538892e-04
21.7308       	8.467464e-04
21.7692       	8.396522e-04
21.8077       	8.325976e-04
21.8462       	8.255951e-04
21.8846       	8.186456e-04
21.9231       	8.117754e-04
21.9615       	8.049606e-04
22            	7.982155e-04
22.0385       	7.915443e-04
22.0769       	7.849464e-04
22.1154       	7.784265e-04
22.1538       	7.719691e-04
22.1923       	7.655972e-04
22.2308       	7.593055e-04
22.2692       	7.530905e-04
22.3077       	7.469535e-04
22.3462       	7.408900e-04
22.3846       	7.348972e-04
22.4231       	7.289713e-04
22.4615       	7.231172e-04
22.5          	7.173344e-04
22.5385       	7.116177e-04
22.5769       	7.059662e-04
22.6154       	7.003850e-04
22.6538       	6.948562e-04
22.6923       	6.893850e-04
22.7308       	6.839634e-04
22.7692       	6.785915e-04
22.8077       	6.732673e-04
22.8462       	6.679914e-04
22.8846       	6.627615e-04
22.9231       	6.575587e-04
22.9615       	6.523814e-04
23            	6.472344e-04
23.0385       	6.421227e-04
23.0769       	6.370477e-04
23.1154       	6.320165e-04
23.1538       	6.270292e-04
23.1923       	6.220843e-04
23.2308       	6.171835e-04
23.2692       	6.123309e-04
23.3077       	6.075310e-04
23.3462       	6.027795e-04
23.3846       	5.980807e-04
23.4231       	5.934326e-04
23.4615       	5.888324e-04
23.5          	5.842837e-04
23.5385       	5.797816e-04
23.5769       	5.753289e-04
23.6154       	5.709198e-04
23.6538       	5.665609e-04
23.6923       	5.622290e-04
23.7308       	5.579479e-04
23.7692       	5.537185e-04
23.8077       	5.495308e-04
23.8462       	5.453870e-04
23.8846       	5.412891e-04
23.9231       	5.372406e-04
23.9615       	5.332438e-04
24            	5.292946e-04
24.0385       	5.254014e-04
24.0769       	5.215566e-04
24.1154       	5.177626e-04
24.1538       	5.140206e-04
24.1923       	5.103297e-04
24.2308       	5.066809e-04
24.2692       	5.030681e-04
24.3077       	4.994989e-04
24.3462       	4.959656e-04
24.3846       	4.924689e-04
24.4231       	4.890029e-04
24.4615       	4.855666e-04
24.5          	4.821496e-04
24.5385       	4.787553e-04
24.5769       	4.753912e-04
24.6154       	4.720480e-04
24.6538       	4.687259e-04
24.6923       	4.654221e-04
24.7308       	4.621427e-04
24.7692       	4.588876e-04
24.8077       	4.556566e-04
24.8462       	4.524494e-04
24.8846       	4.492680e-04
24.9231       	4.461159e-04
24.9615       	4.429945e-04
25            	4.399067e-04
25.0385       	4.368553e-04
25.0769       	4.338396e-04
25.1154       	4.308594e-04
25.1538       	4.279153e-04
25.1923       	4.250083e-04
25.2308       	4.221374e-04
25.2692       	4.193028e-04
25.3077       	4.165054e-04
25.3462       	4.137446e-04
25.3846       	4.110179e-04
25.4231       	4.083236e-04
25.4615       	4.056586e-04
25.5          	4.030255e-04
25.5385       	4.004235e-04
25.5769       	3.978469e-04
25.6154       	3.952950e-04
25.6538       	3.927696e-04
25.6923       	3.902643e-04
25.7308       	3.877720e-04
25.7692       	3.852952e-04
25.8077       	3.828307e-04
25.8462       	3.803834e-04
25.8846       	3.779510e-04
25.9231       	3.755315e-04
25.9615       	3.731331e-04
26            	3.707506e-04
26.0385       	3.683850e-04
26.0769       	3.660377e-04
26.1154       	3.637073e-04
26.1538       	3.613945e-04
26.1923       	3.591000e-04
26.2308       	3.568191e-04
26.2692       	3.545625e-04
26.3077       	3.523198e-04
26.3462       	3.500977e-04
26.3846       	3.478979e-04
26.4231       	3.457132e-04
26.4615       	3.435486e-04
26.5          	3.413932e-04
26.5385       	3.392543e-04
26.5769       	3.371326e-04
26.6154       	3.350244e-04
26.6538       	3.329347e-04
26.6923       	3.308573e-04
26.7308       	3.287905e-04
26.7692       	3.267413e-04
26.8077       	3.247053e-04
26.8462       	3.226759e-04
26.8846       	3.206630e-04
26.9231       	3.186586e-04
26.9615       	3.166659e-04
27            	3.146850e-04
27.0385       	3.127140e-04
27.0769       	3.107546e-04
27.1154       	3.088056e-04
27.1538       	3.068649e-04
27.1923       	3.049361e-04
27.2308       	3.030200e-04
27.2692       	3.011106e-04
27.3077       	2.992090e-04
27.3462       	2.973192e-04
27.3846       	2.954416e-04
27.4231       	2.935652e-04
27.4615       	2.917010e-04
27.5          	2.898483e-04
27.5385       	2.880057e-04
27.5769       	2.861706e-04
27.6154       	2.843434e-04
27.6538       	2.825254e-04
27.6923       	2.807203e-04
27.7308       	2.789229e-04
27.7692       	2.771342e-04
27.8077       	2.753543e-04
27.8462       	2.735816e-04
27.8846       	2.718192e-04
27.9231       	2.700683e-04
27.9615       	2.683280e-04
28            	2.665981e-04
28.0385       	2.648792e-04
28.0769       	2.631700e-04
28.1154       	2.614660e-04
28.1538       	2.597765e-04
28.1923       	2.580937e-04
28.2308       	2.564167e-04
28.2692       	2.547486e-04
28.3077       	2.530892e-04
28.3462       	2.514390e-04
28.3846       	2.497973e-04
28.4231       	2.481625e-04
28.4615       	2.465363e-04
28.5          	2.449165e-04
28.5385       	2.433065e-04
28.5769       	2.417046e-04
28.6154       	2.401072e-04
28.6538       	2.385146e-04
28.6923       	2.369316e-04
28.7308       	2.353612e-04
28.7692       	2.337909e-04
28.8077       	2.322276e-04
28.8462       	2.306680e-04
28.8846       	2.291210e-04
28.9231       	2.275785e-04
28.9615       	2.260437e-04
29            	2.245144e-04
29.0385       	2.229938e-04
29.0769       	2.214760e-04
29.1154       	2.199629e-04
29.1538       	2.184579e-04
29.1923       	2.169602e-04
29.2308       	2.154703e-04
29.2692       	2.139863e-04
29.3077       	2.125098e-04
29.3462       	2.110421e-04
29.3846       	2.095801e-04
29.4231       	2.081234e-04
29.4615       	2.066743e-04
29.5          	2.052315e-04
29.5385       	2.037952e-04
29.5769       	2.023660e-04
29.6154       	2.009432e-04
29.6538       	1.995272e-04
29.6923       	1.981164e-04
29.7308       	1.967126e-04
29.7692       	1.953154e-04
29.8077       	1.939246e-04
29.8462       	1.925410e-04
29.8846       	1.911635e-04
29.9231       	1.897919e-04
29.9615       	1.884279e-04
30            	1.870715e-04
30.0385       	1.857219e-04
30.0769       	1.843795e-04
30.1154       	1.830443e-04
30.1538       	1.817180e-04
30.1923       	1.803968e-04
30.2308       	1.790788e-04
30.2692       	1.777707e-04
30.3077       	1.764713e-04
30.3462       	1.751796e-04
30.3846       	1.738968e-04
30.4231       	1.726201e-04
30.4615       	1.713499e-04
30.5          	1.700853e-04
30.5385       	1.688288e-04
30.5769       	1.675786e-04
30.6154       	1.663351e-04
30.6538       	1.650979e-04
30.6923       	1.638671e-04
30.7308       	1.626427e-04
30.7692       	1.614248e-04
30.8077       	1.602131e-04
30.8462       	1.590076e-04
30.8846       	1.578084e-04
30.9231       	1.566159e-04
30.9615       	1.554287e-04
31            	1.542481e-04
31.0385       	1.530736e-04
31.0769       	1.519052e-04
31.1154       	1.507433e-04
31.1538       	1.495861e-04
31.1923       	1.484358e-04
31.2308       	1.472918e-04
31.2692       	1.461547e-04
31.3077       	1.450226e-04
31.3462       	1.438968e-04
31.3846       	1.427774e-04
31.4231       	1.416637e-04
31.4615       	1.405549e-04
31.5          	1.394535e-04
31.5385       	1.383588e-04
31.5769       	1.372676e-04
31.6154       	1.361833e-04
31.6538       	1.351067e-04
31.6923       	1.340351e-04
31.7308       	1.329691e-04
31.7692       	1.319103e-04
31.8077       	1.308579e-04
31.8462       	1.298109e-04
31.8846       	1.287718e-04
31.9231       	1.277361e-04
31.9615       	1.267081e-04
32            	1.256857e-04
32.0385       	1.246695e-04
32.0769       	1.236596e-04
32.1154       	1.226552e-04
32.1538       	1.216578e-04
32.1923       	1.206666e-04
32.2308       	1.196804e-04
32.2692       	1.187023e-04
32.3077       	1.177300e-04
32.3462       	1.167628e-04
32.3846       	1.158018e-04
32.4231       	1.148493e-04
32.4615       	1.139022e-04
32.5          	1.129618e-04
32.5385       	1.120274e-04
32.5769       	1.111003e-04
32.6154       	1.101786e-04
32.6538       	1.092639e-04
32.6923       	1.083558e-04
32.7308       	1.074541e-04
32.7692       	1.065589e-04
32.8077       	1.056698e-04
32.8462       	1.047878e-04
32.8846       	1.039124e-04
32.9231       	1.030436e-04
32.9615       	1.021812e-04
33            	1.013266e-04
33.0385       	1.004789e-04
33.0769       	9.963757e-05
33.1154       	9.880305e-05
33.1538       	9.797478e-05
33.1923       	9.715335e-05
33.2308       	9.633880e-05
33.2692       	9.553191e-05
33.3077       	9.473087e-05
33.3462       	9.393612e-05
33.3846       	9.314892e-05
33.4231       	9.236814e-05
33.4615       	9.159368e-05
33.5          	9.082519e-05
33.5385       	9.006308e-05
33.5769       	8.930744e-05
33.6154       	8.855738e-05
33.6538       	8.781329e-05
33.6923       	8.707656e-05
33.7308       	8.634505e-05
33.7692       	8.561928e-05
33.8077       	8.489961e-05
33.8462       	8.418526e-05
33.8846       	8.347735e-05
33.9231       	8.277367e-05
33.9615       	8.207706e-05
34            	8.138484e-05
34.0385       	8.070015e-05
34.0769       	8.002002e-05
34.1154       	7.934301e-05
34.1538       	7.867339e-05
34.1923       	7.800912e-05
34.2308       	7.734993e-05
34.2692       	7.669609e-05
34.3077       	7.604770e-05
34.3462       	7.540390e-05
34.3846       	7.476476e-05
34.4231       	7.413017e-05
34.4615       	7.350122e-05
34.5          	7.287585e-05
34.5385       	7.225468e-05
34.5769       	7.163796e-05
34.6154       	7.102642e-05
34.6538       	7.041862e-05
34.6923       	6.981498e-05
34.7308       	6.921557e-05
34.7692       	6.862045e-05
34.8077       	6.802897e-05
34.8462       	6.744190e-05
34.8846       	6.685899e-05
34.9231       	6.628009e-05
34.9615       	6.570497e-05
35            	6.513354e-05
35.0385       	6.456594e-05
35.0769       	6.400241e-05
35.1154       	6.344226e-05
35.1538       	6.288594e-05
35.1923       	6.233324e-05
35.2308       	6.178443e-05
35.2692       	6.123937e-05
35.3077       	6.069712e-05
35.3462       	6.015808e-05
35.3846       	5.962304e-05
35.4231       	5.909147e-05
35.4615       	5.856262e-05
35.5          	5.803735e-05
35.5385       	5.751560e-05
35.5769       	5.699685e-05
35.6154       	5.648163e-05
35.6538       	5.596971e-05
35.6923       	5.546111e-05
35.7308       	5.495576e-05
35.7692       	5.445364e-05
35.8077       	5.395468e-05
35.8462       	5.345907e-05
35.8846       	5.296668e-05
35.9231       	5.247752e-05
35.9615       	5.199173e-05
36            	5.150959e-05
36.0385       	5.103070e-05
36.0769       	5.055464e-05
36.1154       	5.008209e-05
36.1538       	4.961261e-05
36.1923       	4.914648e-05
36.2308       	4.868427e-05
36.2692       	4.822546e-05
36.3077       	4.777019e-05
36.3462       	4.731838e-05
36.3846       	4.687009e-05
36.4231       	4.642483e-05
36.4615       	4.598369e-05
36.5          	4.554610e-05
36.5385       	4.511194e-05
36.5769       	4.468152e-05
36.6154       	4.425472e-05
36.6538       	4.383172e-05
36.6923       	4.341211e-05
36.7308       	4.299496e-05
36.7692       	4.258244e-05
36.8077       	4.217397e-05
36.8462       	4.176885e-05
36.8846       	4.136650e-05
36.9231       	4.096820e-05
36.9615       	4.057358e-05
37            	4.018256e-05
37.0385       	3.979519e-05
37.0769       	3.941099e-05
37.1154       	3.903053e-05
37.1538       	3.865326e-05
37.1923       	3.827977e-05
37.2308       	3.790948e-05
37.2692       	3.754261e-05
37.3077       	3.717888e-05
37.3462       	3.681836e-05
37.3846       	3.646102e-05
37.4231       	3.610713e-05
37.4615       	3.575588e-05
37.5          	3.540762e-05
37.5385       	3.506248e-05
37.5769       	3.472026e-05
37.6154       	3.438063e-05
37.6538       	3.404407e-05
37.6923       	3.371012e-05
37.7308       	3.337932e-05
37.7692       	3.305092e-05
37.8077       	3.272524e-05
37.8462       	3.240235e-05
37.8846       	3.208190e-05
37.9231       	3.176407e-05
37.9615       	3.144825e-05
38            	3.113466e-05
38.0385       	3.082323e-05
38.0769       	3.051411e-05
38.1154       	3.020727e-05
38.1538       	2.990226e-05
38.1923       	2.959923e-05
38.2308       	2.929811e-05
38.2692       	2.899894e-05
38.3077       	2.870175e-05
38.3462       	2.840623e-05
38.3846       	2.811252e-05
38.4231       	2.782016e-05
38.4615       	2.753024e-05
38.5          	2.724202e-05
38.5385       	2.695570e-05
38.5769       	2.667114e-05
38.6154       	2.638849e-05
38.6538       	2.610751e-05
38.6923       	2.582862e-05
38.7308       	2.555184e-05
38.7692       	2.527669e-05
38.8077       	2.500344e-05
38.8462       	2.473216e-05
38.8846       	2.446333e-05
38.9231       	2.419594e-05