# Region type : patch outlet
# Faces       : 320
# Area        : 1.945340e-05
# Scale factor: 1.000000e+00
# Time        	areaAverage(s)
1.2e-06       	0.000000e+00
2.64e-06      	0.000000e+00
4.368e-06     	0.000000e+00
6.4416e-06    	0.000000e+00
8.92992e-06   	0.000000e+00
1.19159e-05   	0.000000e+00
1.54991e-05   	0.000000e+00
1.97989e-05   	0.000000e+00
2.49587e-05   	0.000000e+00
3.11504e-05   	0.000000e+00
3.85805e-05   	0.000000e+00
4.74965e-05   	0.000000e+00
5.81958e-05   	0.000000e+00
7.1035e-05    	0.000000e+00
8.6442e-05    	0.000000e+00
0.00010493    	0.000000e+00
0.000127116   	0.000000e+00
0.00015374    	0.000000e+00
0.000185688   	0.000000e+00
0.000224025   	0.000000e+00
0.00027003    	0.000000e+00
0.000325236   	0.000000e+00
0.000391483   	0.000000e+00
0.00047098    	0.000000e+00
0.000566376   	0.000000e+00
0.00068085    	0.000000e+00
0.000818221   	0.000000e+00
0.000983063   	0.000000e+00
0.00118087    	0.000000e+00
0.00141824    	0.000000e+00
0.0017031     	0.000000e+00
0.00204491    	0.000000e+00
0.00245508    	0.000000e+00
0.0029473     	0.000000e+00
0.00353797    	0.000000e+00
0.00424679    	0.000000e+00
0.00509742    	0.000000e+00
0.00611825    	0.000000e+00
0.00734314    	0.000000e+00
0.00881286    	0.000000e+00
0.0105765     	4.121052e-306
0.0126925     	-7.620603e-288
0.0152319     	-2.188617e-270
0.0182788     	1.708551e-254
0.0219337     	3.538081e-239
0.0263197     	-2.669365e-222
0.0315829     	-6.624350e-206
0.037896      	1.312129e-187
0.0454717     	-1.554812e-168
0.0545626     	-3.541384e-153
0.0654797     	1.397814e-140
0.0785686     	2.225023e-123
0.094292      	-8.165085e-108
0.11316       	1.609669e-93
0.135784      	-4.879552e-80
0.162077      	8.143686e-67
0.192127      	-2.763665e-58
0.225985      	-2.154056e-52
0.263576      	-1.955246e-49
0.300292      	6.320404e-45
0.336724      	1.312746e-43
0.372873      	-9.546735e-43
0.408742      	-1.564277e-41
0.444894      	-1.009156e-40
0.481046      	-3.749536e-40
0.517489      	-6.928396e-40
0.554231      	1.194385e-39
0.591279      	2.580840e-38
0.628641      	7.127845e-38
0.666325      	-6.250097e-37
0.704009      	-8.035541e-36
0.742027      	-6.566059e-35
0.780044      	-4.352730e-34
0.818408      	-2.357664e-33
0.856771      	-1.035947e-32
0.895134      	-3.247718e-32
0.933497      	-2.831653e-32
0.971861      	5.517217e-31
1.01022       	5.613221e-30
1.04859       	3.716951e-29
1.08695       	2.034598e-28
1.12531       	9.877495e-28
1.16368       	4.392764e-27
1.20204       	1.822827e-26
1.2404        	7.143068e-26
1.27877       	2.665505e-25
1.31713       	9.530786e-25
1.35549       	3.280644e-24
1.39386       	1.093156e-23
1.43222       	3.528881e-23
1.47058       	1.106456e-22
1.50895       	3.376059e-22
1.54731       	1.004028e-21
1.58567       	2.914109e-21
1.62404       	8.264669e-21
1.6624        	2.293150e-20
1.70076       	6.233182e-20
1.73913       	1.662246e-19
1.77749       	4.355877e-19
1.81585       	1.123525e-18
1.85421       	2.857848e-18
1.89258       	7.181682e-18
1.93094       	1.785982e-17
1.9693        	4.401613e-17
2.00767       	1.076107e-16
2.04603       	2.612542e-16
2.08439       	6.296932e-16
2.12276       	1.504228e-15
2.16112       	3.563585e-15
2.19948       	8.371796e-15
2.23785       	1.948618e-14
2.27621       	4.489726e-14
2.31457       	1.022907e-13
2.35294       	2.302390e-13
2.3913        	5.114343e-13
2.42966       	1.120498e-12
2.46803       	2.419912e-12
2.50639       	5.149352e-12
2.54475       	1.079246e-11
2.58312       	2.227399e-11
2.62148       	4.526037e-11
2.65984       	9.053727e-11
2.69821       	1.782915e-10
2.73657       	3.456489e-10
2.77493       	6.597656e-10
2.8133        	1.240111e-09
2.85166       	2.295753e-09
2.89002       	4.186549e-09
2.92839       	7.522006e-09
2.96675       	1.331856e-08
3.00511       	2.324464e-08
3.04348       	3.999597e-08
3.08184       	6.786313e-08
3.1202        	1.135713e-07
3.15856       	1.875139e-07
3.19693       	3.054971e-07
3.23529       	4.912392e-07
3.27365       	7.797800e-07
3.31202       	1.222218e-06
3.35038       	1.891920e-06
3.38874       	2.892796e-06
3.42711       	4.369964e-06
3.46547       	6.523403e-06
3.50383       	9.624741e-06
3.5422        	1.403784e-05
3.58056       	2.024342e-05
3.61892       	2.886900e-05
3.65729       	4.072005e-05
3.69565       	5.681861e-05
3.73401       	7.844180e-05
3.77238       	1.071645e-04
3.81074       	1.449015e-04
3.8491        	1.939477e-04
3.88747       	2.570083e-04
3.92583       	3.372318e-04
3.96419       	4.382231e-04
4.00256       	5.640415e-04
4.04092       	7.191916e-04
4.07928       	9.085681e-04
4.11765       	1.137396e-03
4.15601       	1.411148e-03
4.19437       	1.735390e-03
4.23274       	2.115680e-03
4.2711        	2.557362e-03
4.30946       	3.065399e-03
4.34783       	3.644128e-03
4.38619       	4.297061e-03
4.42455       	5.026797e-03
4.46291       	5.834492e-03
4.50128       	6.720030e-03
4.53964       	7.681717e-03
4.578         	8.716224e-03
4.61637       	9.818580e-03
4.65473       	1.098208e-02
4.69309       	1.219845e-02
4.73146       	1.345802e-02
4.76982       	1.474969e-02
4.80818       	1.606145e-02
4.84655       	1.738045e-02
4.88491       	1.869369e-02
4.92327       	1.998807e-02
4.96164       	2.125070e-02
5             	2.246924e-02
5.03846       	2.363518e-02
5.07692       	2.473475e-02
5.11538       	2.575853e-02
5.15385       	2.669910e-02
5.19231       	2.754896e-02
5.23077       	2.830250e-02
5.26923       	2.895492e-02
5.30769       	2.950409e-02
5.34615       	2.994951e-02
5.38462       	3.029430e-02
5.42308       	3.054196e-02
5.46154       	3.069714e-02
5.5           	3.076711e-02
5.53846       	3.075826e-02
5.57692       	3.067506e-02
5.61538       	3.052501e-02
5.65385       	3.031845e-02
5.69231       	3.006409e-02
5.73077       	2.977085e-02
5.76923       	2.944385e-02
5.80769       	2.908923e-02
5.84615       	2.871630e-02
5.88462       	2.833255e-02
5.92308       	2.794219e-02
5.96154       	2.754810e-02
6             	2.715567e-02
6.03846       	2.676920e-02
6.07692       	2.639210e-02
6.11538       	2.602855e-02
6.15385       	2.567994e-02
6.19231       	2.534599e-02
6.23077       	2.502887e-02
6.26923       	2.472912e-02
6.30769       	2.444556e-02
6.34615       	2.417725e-02
6.38462       	2.392443e-02
6.42308       	2.368787e-02
6.46154       	2.346677e-02
6.5           	2.325982e-02
6.53846       	2.306651e-02
6.57692       	2.288606e-02
6.61538       	2.271813e-02
6.65385       	2.256067e-02
6.69231       	2.241152e-02
6.73077       	2.226883e-02
6.76923       	2.213094e-02
6.80769       	2.199680e-02
6.84615       	2.186598e-02
6.88462       	2.173804e-02
6.92308       	2.161257e-02
6.96154       	2.148898e-02
7             	2.136648e-02
7.03846       	2.124483e-02
7.07692       	2.112389e-02
7.11538       	2.100307e-02
7.15385       	2.088161e-02
7.19231       	2.075861e-02
7.23077       	2.063353e-02
7.26923       	2.050597e-02
7.30769       	2.037580e-02
7.34615       	2.024280e-02
7.38462       	2.010733e-02
7.42308       	1.996884e-02
7.46154       	1.982712e-02
7.5           	1.968217e-02
7.53846       	1.953431e-02
7.57692       	1.938425e-02
7.61538       	1.923263e-02
7.65385       	1.907950e-02
7.69231       	1.892462e-02
7.73077       	1.876708e-02
7.76923       	1.860568e-02
7.80769       	1.844083e-02
7.84615       	1.827233e-02
7.88462       	1.809938e-02
7.92308       	1.792134e-02
7.96154       	1.773866e-02
8             	1.755185e-02
8.03846       	1.736118e-02
8.07692       	1.716711e-02
8.11538       	1.696949e-02
8.15385       	1.676851e-02
8.19231       	1.656474e-02
8.23077       	1.635865e-02
8.26923       	1.615042e-02
8.30769       	1.594036e-02
8.34615       	1.572835e-02
8.38462       	1.551446e-02
8.42308       	1.529869e-02
8.46154       	1.508106e-02
8.5           	1.486153e-02
8.53846       	1.464052e-02
8.57692       	1.441823e-02
8.61538       	1.419443e-02
8.65385       	1.396907e-02
8.69231       	1.374201e-02
8.73077       	1.351354e-02
8.76923       	1.328351e-02
8.80769       	1.305254e-02
8.84615       	1.282076e-02
8.88462       	1.258819e-02
8.92308       	1.235472e-02
8.96154       	1.212044e-02
9             	1.188576e-02
9.03846       	1.165109e-02
9.07692       	1.141657e-02
9.11538       	1.118252e-02
9.15385       	1.094929e-02
9.19231       	1.071715e-02
9.23077       	1.048636e-02
9.26923       	1.025689e-02
9.30769       	1.002847e-02
9.34615       	9.801379e-03
9.38462       	9.576090e-03
9.42308       	9.353089e-03
9.46154       	9.132347e-03
9.5           	8.914016e-03
9.53846       	8.698116e-03
9.57692       	8.484902e-03
9.61538       	8.274253e-03
9.65385       	8.065823e-03
9.69231       	7.859183e-03
9.73077       	7.654786e-03
9.76923       	7.453301e-03
9.80769       	7.254864e-03
9.84615       	7.060063e-03
9.88462       	6.869572e-03
9.92308       	6.683896e-03
9.96154       	6.503518e-03
10            	6.328639e-03
10.0385       	6.159270e-03
10.0769       	5.995214e-03
10.1154       	5.836683e-03
10.1538       	5.683658e-03
10.1923       	5.535901e-03
10.2308       	5.393300e-03
10.2692       	5.255692e-03
10.3077       	5.122800e-03
10.3462       	4.994525e-03
10.3846       	4.870756e-03
10.4231       	4.751366e-03
10.4615       	4.636329e-03
10.5          	4.525621e-03
10.5385       	4.419295e-03
10.5769       	4.317378e-03
10.6154       	4.219790e-03
10.6538       	4.126351e-03
10.6923       	4.037036e-03
10.7308       	3.951743e-03
10.7692       	3.870366e-03
10.8077       	3.793040e-03
10.8462       	3.719836e-03
10.8846       	3.650508e-03
10.9231       	3.584919e-03
10.9615       	3.523417e-03
11            	3.466033e-03
11.0385       	3.412665e-03
11.0769       	3.363489e-03
11.1154       	3.318463e-03
11.1538       	3.277561e-03
11.1923       	3.240657e-03
11.2308       	3.207710e-03
11.2692       	3.178797e-03
11.3077       	3.153925e-03
11.3462       	3.132733e-03
11.3846       	3.114818e-03
11.4231       	3.099843e-03
11.4615       	3.087424e-03
11.5          	3.077225e-03
11.5385       	3.069017e-03
11.5769       	3.062817e-03
11.6154       	3.058297e-03
11.6538       	3.055250e-03
11.6923       	3.053504e-03
11.7308       	3.052987e-03
11.7692       	3.053595e-03
11.8077       	3.055147e-03
11.8462       	3.057631e-03
11.8846       	3.060982e-03
11.9231       	3.064968e-03
11.9615       	3.069519e-03
12            	3.074459e-03
12.0385       	3.079649e-03
12.0769       	3.085000e-03
12.1154       	3.090460e-03
12.1538       	3.096044e-03
12.1923       	3.101640e-03
12.2308       	3.107166e-03
12.2692       	3.112563e-03
12.3077       	3.117797e-03
12.3462       	3.122840e-03
12.3846       	3.127684e-03
12.4231       	3.132362e-03
12.4615       	3.136890e-03
12.5          	3.141206e-03
12.5385       	3.145267e-03
12.5769       	3.149057e-03
12.6154       	3.152569e-03
12.6538       	3.155802e-03
12.6923       	3.158734e-03
12.7308       	3.161359e-03
12.7692       	3.163762e-03
12.8077       	3.165893e-03
12.8462       	3.167709e-03
12.8846       	3.169187e-03
12.9231       	3.170303e-03
12.9615       	3.171034e-03
13            	3.171434e-03
13.0385       	3.171485e-03
13.0769       	3.171151e-03
13.1154       	3.170404e-03
13.1538       	3.169236e-03
13.1923       	3.167638e-03
13.2308       	3.165593e-03
13.2692       	3.163103e-03
13.3077       	3.160219e-03
13.3462       	3.156924e-03
13.3846       	3.153179e-03
13.4231       	3.148998e-03
13.4615       	3.144373e-03
13.5          	3.139304e-03
13.5385       	3.133793e-03
13.5769       	3.127847e-03
13.6154       	3.121481e-03
13.6538       	3.114704e-03
13.6923       	3.107549e-03
13.7308       	3.100036e-03
13.7692       	3.092135e-03
13.8077       	3.083841e-03
13.8462       	3.075146e-03
13.8846       	3.066029e-03
13.9231       	3.056528e-03
13.9615       	3.046673e-03
14            	3.036453e-03
14.0385       	3.025867e-03
14.0769       	3.014929e-03
14.1154       	3.003655e-03
14.1538       	2.992056e-03
14.1923       	2.980152e-03
14.2308       	2.967958e-03
14.2692       	2.955481e-03
14.3077       	2.942777e-03
14.3462       	2.929846e-03
14.3846       	2.916716e-03
14.4231       	2.903414e-03
14.4615       	2.889921e-03
14.5          	2.876222e-03
14.5385       	2.862310e-03
14.5769       	2.848221e-03
14.6154       	2.833943e-03
14.6538       	2.819455e-03
14.6923       	2.804750e-03
14.7308       	2.789843e-03
14.7692       	2.774732e-03
14.8077       	2.759425e-03
14.8462       	2.743924e-03
14.8846       	2.728268e-03
14.9231       	2.712487e-03
14.9615       	2.696584e-03
15            	2.680587e-03
15.0385       	2.664514e-03
15.0769       	2.648417e-03
15.1154       	2.632281e-03
15.1538       	2.616116e-03
15.1923       	2.599934e-03
15.2308       	2.583762e-03
15.2692       	2.567560e-03
15.3077       	2.551331e-03
15.3462       	2.535076e-03
15.3846       	2.518774e-03
15.4231       	2.502449e-03
15.4615       	2.486112e-03
15.5          	2.469776e-03
15.5385       	2.453458e-03
15.5769       	2.437179e-03
15.6154       	2.420903e-03
15.6538       	2.404661e-03
15.6923       	2.388481e-03
15.7308       	2.372381e-03
15.7692       	2.356383e-03
15.8077       	2.340506e-03
15.8462       	2.324774e-03
15.8846       	2.309189e-03
15.9231       	2.293719e-03
15.9615       	2.278385e-03
16            	2.263208e-03
16.0385       	2.248202e-03
16.0769       	2.233349e-03
16.1154       	2.218661e-03
16.1538       	2.204156e-03
16.1923       	2.189868e-03
16.2308       	2.175793e-03
16.2692       	2.161913e-03
16.3077       	2.148258e-03
16.3462       	2.134807e-03
16.3846       	2.121565e-03
16.4231       	2.108507e-03
16.4615       	2.095552e-03
16.5          	2.082694e-03
16.5385       	2.069931e-03
16.5769       	2.057261e-03
16.6154       	2.044689e-03
16.6538       	2.032214e-03
16.6923       	2.019841e-03
16.7308       	2.007572e-03
16.7692       	1.995387e-03
16.8077       	1.983277e-03
16.8462       	1.971246e-03
16.8846       	1.959319e-03
16.9231       	1.947512e-03
16.9615       	1.935841e-03
17            	1.924299e-03
17.0385       	1.912900e-03
17.0769       	1.901646e-03
17.1154       	1.890537e-03
17.1538       	1.879561e-03
17.1923       	1.868700e-03
17.2308       	1.857953e-03
17.2692       	1.847322e-03
17.3077       	1.836790e-03
17.3462       	1.826410e-03
17.3846       	1.816150e-03
17.4231       	1.805977e-03
17.4615       	1.795870e-03
17.5          	1.785792e-03
17.5385       	1.775726e-03
17.5769       	1.765671e-03
17.6154       	1.755628e-03
17.6538       	1.745600e-03
17.6923       	1.735585e-03
17.7308       	1.725587e-03
17.7692       	1.715612e-03
17.8077       	1.705667e-03
17.8462       	1.695754e-03
17.8846       	1.685869e-03
17.9231       	1.676001e-03
17.9615       	1.666165e-03
18            	1.656374e-03
18.0385       	1.646641e-03
18.0769       	1.636973e-03
18.1154       	1.627381e-03
18.1538       	1.617868e-03
18.1923       	1.608441e-03
18.2308       	1.599102e-03
18.2692       	1.589849e-03
18.3077       	1.580677e-03
18.3462       	1.571591e-03
18.3846       	1.562603e-03
18.4231       	1.553699e-03
18.4615       	1.544862e-03
18.5          	1.536048e-03
18.5385       	1.527254e-03
18.5769       	1.518475e-03
18.6154       	1.509710e-03
18.6538       	1.500955e-03
18.6923       	1.492208e-03
18.7308       	1.483466e-03
18.7692       	1.474730e-03
18.8077       	1.466001e-03
18.8462       	1.457271e-03
18.8846       	1.448517e-03
18.9231       	1.439738e-03
18.9615       	1.430941e-03
19            	1.422125e-03
19.0385       	1.413299e-03
19.0769       	1.404472e-03
19.1154       	1.395641e-03
19.1538       	1.386814e-03
19.1923       	1.377999e-03
19.2308       	1.369196e-03
19.2692       	1.360413e-03
19.3077       	1.351649e-03
19.3462       	1.342906e-03
19.3846       	1.334186e-03
19.4231       	1.325486e-03
19.4615       	1.316804e-03
19.5          	1.308137e-03
19.5385       	1.299485e-03
19.5769       	1.290849e-03
19.6154       	1.282228e-03
19.6538       	1.273589e-03
19.6923       	1.264933e-03
19.7308       	1.256268e-03
19.7692       	1.247597e-03
19.8077       	1.238934e-03
19.8462       	1.230276e-03
19.8846       	1.221629e-03
19.9231       	1.212996e-03
19.9615       	1.204381e-03
20            	1.195782e-03
20.0385       	1.187206e-03
20.0769       	1.178656e-03
20.1154       	1.170115e-03
20.1538       	1.161580e-03
20.1923       	1.153060e-03
20.2308       	1.144562e-03
20.2692       	1.136092e-03
20.3077       	1.127658e-03
20.3462       	1.119265e-03
20.3846       	1.110919e-03
20.4231       	1.102617e-03
20.4615       	1.094365e-03
20.5          	1.086156e-03
20.5385       	1.077999e-03
20.5769       	1.069899e-03
20.6154       	1.061856e-03
20.6538       	1.053872e-03
20.6923       	1.045949e-03
20.7308       	1.038089e-03
20.7692       	1.030289e-03
20.8077       	1.022554e-03
20.8462       	1.014881e-03
20.8846       	1.007266e-03
20.9231       	9.997049e-04
20.9615       	9.921978e-04
21            	9.847404e-04
21.0385       	9.773275e-04
21.0769       	9.699526e-04
21.1154       	9.626109e-04
21.1538       	9.552991e-04
21.1923       	9.480145e-04
21.2308       	9.407554e-04
21.2692       	9.335002e-04
21.3077       	9.262362e-04
21.3462       	9.189668e-04
21.3846       	9.116963e-04
21.4231       	9.044293e-04
21.4615       	8.971703e-04
21.5          	8.899254e-04
21.5385       	8.826912e-04
21.5769       	8.754675e-04
21.6154       	8.682437e-04
21.6538       	8.610381e-04
21.6923       	8.538549e-04
21.7308       	8.467086e-04
21.7692       	8.396029e-04
21.8077       	8.325454e-04
21.8462       	8.255422e-04
21.8846       	8.185984e-04
21.9231       	8.117174e-04
21.9615       	8.049039e-04
22            	7.981587e-04
22.0385       	7.914853e-04
22.0769       	7.848864e-04
22.1154       	7.783629e-04
22.1538       	7.719144e-04
22.1923       	7.655463e-04
22.2308       	7.592566e-04
22.2692       	7.530452e-04
22.3077       	7.469091e-04
22.3462       	7.408453e-04
22.3846       	7.348540e-04
22.4231       	7.289335e-04
22.4615       	7.230827e-04
22.5          	7.172999e-04
22.5385       	7.115836e-04
22.5769       	7.059315e-04
22.6154       	7.003414e-04
22.6538       	6.948117e-04
22.6923       	6.893392e-04
22.7308       	6.839202e-04
22.7692       	6.785516e-04
22.8077       	6.732311e-04
22.8462       	6.679571e-04
22.8846       	6.627288e-04
22.9231       	6.575270e-04
22.9615       	6.523516e-04
23            	6.472068e-04
23.0385       	6.420953e-04
23.0769       	6.370272e-04
23.1154       	6.319944e-04
23.1538       	6.270039e-04
23.1923       	6.220575e-04
23.2308       	6.171593e-04
23.2692       	6.123099e-04
23.3077       	6.075105e-04
23.3462       	6.027612e-04
23.3846       	5.980617e-04
23.4231       	5.934126e-04
23.4615       	5.888141e-04
23.5          	5.842646e-04
23.5385       	5.797631e-04
23.5769       	5.753065e-04
23.6154       	5.708939e-04
23.6538       	5.665319e-04
23.6923       	5.621987e-04
23.7308       	5.579148e-04
23.7692       	5.536790e-04
23.8077       	5.494898e-04
23.8462       	5.453463e-04
23.8846       	5.412513e-04
23.9231       	5.372049e-04
23.9615       	5.332049e-04
24            	5.292654e-04
24.0385       	5.253942e-04
24.0769       	5.215598e-04
24.1154       	5.177718e-04
24.1538       	5.140309e-04
24.1923       	5.103348e-04
24.2308       	5.066812e-04
24.2692       	5.030693e-04
24.3077       	4.994986e-04
24.3462       	4.959645e-04
24.3846       	4.924654e-04
24.4231       	4.889993e-04
24.4615       	4.855665e-04
24.5          	4.821505e-04
24.5385       	4.787604e-04
24.5769       	4.753924e-04
24.6154       	4.720468e-04
24.6538       	4.687224e-04
24.6923       	4.654187e-04
24.7308       	4.621333e-04
24.7692       	4.588736e-04
24.8077       	4.556397e-04
24.8462       	4.524302e-04
24.8846       	4.492461e-04
24.9231       	4.460911e-04
24.9615       	4.429675e-04
25            	4.398771e-04
25.0385       	4.368219e-04
25.0769       	4.338030e-04
25.1154       	4.308210e-04
25.1538       	4.278761e-04
25.1923       	4.249685e-04
25.2308       	4.220982e-04
25.2692       	4.192650e-04
25.3077       	4.164680e-04
25.3462       	4.137057e-04
25.3846       	4.109780e-04
25.4231       	4.082841e-04
25.4615       	4.056229e-04
25.5          	4.029919e-04
25.5385       	4.003894e-04
25.5769       	3.978141e-04
25.6154       	3.952639e-04
25.6538       	3.927374e-04
25.6923       	3.902303e-04
25.7308       	3.877377e-04
25.7692       	3.852595e-04
25.8077       	3.827962e-04
25.8462       	3.803480e-04
25.8846       	3.779151e-04
25.9231       	3.754982e-04
25.9615       	3.730980e-04
26            	3.707145e-04
26.0385       	3.683484e-04
26.0769       	3.659999e-04
26.1154       	3.636698e-04
26.1538       	3.613578e-04
26.1923       	3.590640e-04
26.2308       	3.567893e-04
26.2692       	3.545323e-04
26.3077       	3.522938e-04
26.3462       	3.500734e-04
26.3846       	3.478705e-04
26.4231       	3.456843e-04
26.4615       	3.435150e-04
26.5          	3.413618e-04
26.5385       	3.392244e-04
26.5769       	3.371023e-04
26.6154       	3.349946e-04
26.6538       	3.329014e-04
26.6923       	3.308220e-04
26.7308       	3.287560e-04
26.7692       	3.267034e-04
26.8077       	3.246636e-04
26.8462       	3.226361e-04
26.8846       	3.206200e-04
26.9231       	3.186168e-04
26.9615       	3.166249e-04
27            	3.146441e-04
27.0385       	3.126738e-04
27.0769       	3.107142e-04
27.1154       	3.087652e-04
27.1538       	3.068263e-04
27.1923       	3.048973e-04
27.2308       	3.029783e-04
27.2692       	3.010691e-04
27.3077       	2.991696e-04
27.3462       	2.972795e-04
27.3846       	2.953986e-04
27.4231       	2.935268e-04
27.4615       	2.916640e-04
27.5          	2.898105e-04
27.5385       	2.879661e-04
27.5769       	2.861306e-04
27.6154       	2.843037e-04
27.6538       	2.824860e-04
27.6923       	2.806778e-04
27.7308       	2.788792e-04
27.7692       	2.770908e-04
27.8077       	2.753123e-04
27.8462       	2.735439e-04
27.8846       	2.717851e-04
27.9231       	2.700358e-04
27.9615       	2.682963e-04
28            	2.665665e-04
28.0385       	2.648461e-04
28.0769       	2.631348e-04
28.1154       	2.614324e-04
28.1538       	2.597397e-04
28.1923       	2.580560e-04
28.2308       	2.563816e-04
28.2692       	2.547149e-04
28.3077       	2.530568e-04
28.3462       	2.514047e-04
28.3846       	2.497626e-04
28.4231       	2.481257e-04
28.4615       	2.464990e-04
28.5          	2.448804e-04
28.5385       	2.432693e-04
28.5769       	2.416666e-04
28.6154       	2.400716e-04
28.6538       	2.384844e-04
28.6923       	2.369024e-04
28.7308       	2.353268e-04
28.7692       	2.337573e-04
28.8077       	2.321942e-04
28.8462       	2.306372e-04
28.8846       	2.290874e-04
28.9231       	2.275445e-04
28.9615       	2.260077e-04
29            	2.244778e-04
29.0385       	2.229546e-04
29.0769       	2.214381e-04
29.1154       	2.199284e-04
29.1538       	2.184254e-04
29.1923       	2.169289e-04
29.2308       	2.154390e-04
29.2692       	2.139556e-04
29.3077       	2.124789e-04
29.3462       	2.110088e-04
29.3846       	2.095454e-04
29.4231       	2.080888e-04
29.4615       	2.066387e-04
29.5          	2.051952e-04
29.5385       	2.037583e-04
29.5769       	2.023280e-04
29.6154       	2.009044e-04
29.6538       	1.994872e-04
29.6923       	1.980767e-04
29.7308       	1.966727e-04
29.7692       	1.952754e-04
29.8077       	1.938848e-04
29.8462       	1.925008e-04
29.8846       	1.911235e-04
29.9231       	1.897533e-04
29.9615       	1.883907e-04
30            	1.870345e-04
30.0385       	1.856848e-04
30.0769       	1.843421e-04
30.1154       	1.830072e-04
30.1538       	1.816789e-04
30.1923       	1.803583e-04
30.2308       	1.790460e-04
30.2692       	1.777404e-04
30.3077       	1.764414e-04
30.3462       	1.751502e-04
30.3846       	1.738665e-04
30.4231       	1.725881e-04
30.4615       	1.713164e-04
30.5          	1.700526e-04
30.5385       	1.687957e-04
30.5769       	1.675449e-04
30.6154       	1.663007e-04
30.6538       	1.650632e-04
30.6923       	1.638327e-04
30.7308       	1.626090e-04
30.7692       	1.613916e-04
30.8077       	1.601805e-04
30.8462       	1.589739e-04
30.8846       	1.577727e-04
30.9231       	1.565796e-04
30.9615       	1.553930e-04
31            	1.542122e-04
31.0385       	1.530380e-04
31.0769       	1.518701e-04
31.1154       	1.507078e-04
31.1538       	1.495516e-04
31.1923       	1.484016e-04
31.2308       	1.472575e-04
31.2692       	1.461181e-04
31.3077       	1.449857e-04
31.3462       	1.438601e-04
31.3846       	1.427405e-04
31.4231       	1.416269e-04
31.4615       	1.405192e-04
31.5          	1.394175e-04
31.5385       	1.383225e-04
31.5769       	1.372324e-04
31.6154       	1.361495e-04
31.6538       	1.350724e-04
31.6923       	1.340010e-04
31.7308       	1.329362e-04
31.7692       	1.318773e-04
31.8077       	1.308245e-04
31.8462       	1.297773e-04
31.8846       	1.287363e-04
31.9231       	1.277015e-04
31.9615       	1.266737e-04
32            	1.256522e-04
32.0385       	1.246356e-04
32.0769       	1.236248e-04
32.1154       	1.226212e-04
32.1538       	1.216239e-04
32.1923       	1.206330e-04
32.2308       	1.196479e-04
32.2692       	1.186694e-04
32.3077       	1.176970e-04
32.3462       	1.167308e-04
32.3846       	1.157710e-04
32.4231       	1.148171e-04
32.4615       	1.138694e-04
32.5          	1.129287e-04
32.5385       	1.119941e-04
32.5769       	1.110657e-04
32.6154       	1.101433e-04
32.6538       	1.092279e-04
32.6923       	1.083192e-04
32.7308       	1.074171e-04
32.7692       	1.065217e-04
32.8077       	1.056331e-04
32.8462       	1.047510e-04
32.8846       	1.038755e-04
32.9231       	1.030069e-04
32.9615       	1.021454e-04
33            	1.012896e-04
33.0385       	1.004411e-04
33.0769       	9.959939e-05
33.1154       	9.876432e-05
33.1538       	9.793519e-05
33.1923       	9.711308e-05
33.2308       	9.629800e-05
33.2692       	9.548933e-05
33.3077       	9.468828e-05
33.3462       	9.389358e-05
33.3846       	9.310559e-05
33.4231       	9.232449e-05
33.4615       	9.154979e-05
33.5          	9.078144e-05
33.5385       	9.001943e-05
33.5769       	8.926364e-05
33.6154       	8.851405e-05
33.6538       	8.777064e-05
33.6923       	8.703328e-05
33.7308       	8.630195e-05
33.7692       	8.557658e-05
33.8077       	8.485706e-05
33.8462       	8.414339e-05
33.8846       	8.343550e-05
33.9231       	8.273332e-05
33.9615       	8.203670e-05
34            	8.134566e-05
34.0385       	8.065997e-05
34.0769       	7.997976e-05
34.1154       	7.930497e-05
34.1538       	7.863544e-05
34.1923       	7.797113e-05
34.2308       	7.731194e-05
34.2692       	7.665779e-05
34.3077       	7.600860e-05
34.3462       	7.536428e-05
34.3846       	7.472476e-05
34.4231       	7.408997e-05
34.4615       	7.345982e-05
34.5          	7.283418e-05
34.5385       	7.221307e-05
34.5769       	7.159635e-05
34.6154       	7.098404e-05
34.6538       	7.037606e-05
34.6923       	6.977239e-05
34.7308       	6.917288e-05
34.7692       	6.857754e-05
34.8077       	6.798640e-05
34.8462       	6.739934e-05
34.8846       	6.681634e-05
34.9231       	6.623727e-05
34.9615       	6.566213e-05
35            	6.509088e-05
35.0385       	6.452376e-05
35.0769       	6.396011e-05
35.1154       	6.340024e-05
35.1538       	6.284393e-05
35.1923       	6.229117e-05
35.2308       	6.174195e-05
35.2692       	6.119617e-05
35.3077       	6.065383e-05
35.3462       	6.011502e-05
35.3846       	5.957960e-05
35.4231       	5.904765e-05
35.4615       	5.851912e-05
35.5          	5.799403e-05
35.5385       	5.747225e-05
35.5769       	5.695373e-05
35.6154       	5.643887e-05
35.6538       	5.592698e-05
35.6923       	5.541830e-05
35.7308       	5.491280e-05
35.7692       	5.441061e-05
35.8077       	5.391175e-05
35.8462       	5.341609e-05
35.8846       	5.292406e-05
35.9231       	5.243515e-05
35.9615       	5.194969e-05
36            	5.146767e-05
36.0385       	5.098877e-05
36.0769       	5.051327e-05
36.1154       	5.004116e-05
36.1538       	4.957216e-05
36.1923       	4.910657e-05
36.2308       	4.864415e-05
36.2692       	4.818542e-05
36.3077       	4.773012e-05
36.3462       	4.727833e-05
36.3846       	4.683010e-05
36.4231       	4.638549e-05
36.4615       	4.594447e-05
36.5          	4.550703e-05
36.5385       	4.507321e-05
36.5769       	4.464301e-05
36.6154       	4.421640e-05
36.6538       	4.379341e-05
36.6923       	4.337406e-05
36.7308       	4.295832e-05
36.7692       	4.254618e-05
36.8077       	4.213765e-05
36.8462       	4.173271e-05
36.8846       	4.133132e-05
36.9231       	4.093351e-05
36.9615       	4.053922e-05
37            	4.014841e-05
37.0385       	3.976117e-05
37.0769       	3.937729e-05
37.1154       	3.899686e-05
37.1538       	3.861993e-05
37.1923       	3.824632e-05
37.2308       	3.787607e-05
37.2692       	3.750913e-05
37.3077       	3.714546e-05
37.3462       	3.678506e-05
37.3846       	3.642785e-05
37.4231       	3.607371e-05
37.4615       	3.572268e-05
37.5          	3.537470e-05
37.5385       	3.502963e-05
37.5769       	3.468753e-05
37.6154       	3.434829e-05
37.6538       	3.401186e-05
37.6923       	3.367833e-05
37.7308       	3.334764e-05
37.7692       	3.301973e-05
37.8077       	3.269447e-05
37.8462       	3.237177e-05
37.8846       	3.205154e-05
37.9231       	3.173369e-05
37.9615       	3.141816e-05
38            	3.110489e-05
38.0385       	3.079380e-05
38.0769       	3.048488e-05
38.1154       	3.017807e-05
38.1538       	2.987324e-05
38.1923       	2.957039e-05
38.2308       	2.926949e-05
38.2692       	2.897061e-05
38.3077       	2.867359e-05
38.3462       	2.837846e-05
38.3846       	2.808515e-05
38.4231       	2.779364e-05
38.4615       	2.750397e-05
38.5          	2.721610e-05
38.5385       	2.692993e-05
38.5769       	2.664555e-05
38.6154       	2.636303e-05
38.6538       	2.608229e-05
38.6923       	2.580333e-05
38.7308       	2.552627e-05
38.7692       	2.525114e-05
38.8077       	2.497796e-05
38.8462       	2.470673e-05
38.8846       	2.443742e-05
38.9231       	2.417009e-05