#         Time       outlet
      1.2e-06            0
     2.64e-06            0
    4.368e-06            0
   6.4416e-06            0
  8.92992e-06            0
  1.19159e-05            0
  1.54991e-05            0
  1.97989e-05            0
  2.49587e-05            0
  3.11504e-05            0
  3.85805e-05            0
  4.74965e-05            0
  5.81958e-05            0
   7.1035e-05            0
   8.6442e-05            0
   0.00010493            0
  0.000127116            0
   0.00015374            0
  0.000185688            0
  0.000224025            0
   0.00027003            0
  0.000325236            0
  0.000391483            0
   0.00047098            0
  0.000566376            0
   0.00068085            0
  0.000818221            0
  0.000983063            0
   0.00118087            0
   0.00141824            0
    0.0017031            0
   0.00204491            0
   0.00245508            0
    0.0029473            0
   0.00353797            0
   0.00424679            0
   0.00509742            0
   0.00611825            0
   0.00734314            0
   0.00881286            0
    0.0105765            0
    0.0126925            0
    0.0152319-2.79197e-309
    0.0182788-2.44028e-284
    0.0219337 1.39758e-260
    0.0263197-3.00061e-236
    0.0315829-5.20193e-214
     0.037896 4.84494e-192
    0.0454717 1.30005e-171
    0.0545626 9.07283e-153
    0.0654556 2.14074e-135
    0.0781408 2.04515e-121
    0.0926169  6.0477e-110
     0.108866 1.29955e-100
     0.126915  1.03399e-92
     0.145031  1.39317e-89
     0.163146  1.69263e-87
      0.18133 -1.23307e-85
     0.199177 -8.69724e-84
     0.216698 -1.06524e-82
     0.233966 -5.07843e-82
     0.251049  5.78087e-82
     0.268009  3.17135e-80
     0.284909  2.93693e-79
     0.301749  1.86652e-78
     0.318528  9.64486e-78
     0.335308  4.45164e-77
     0.352027  1.83771e-76
     0.368746  7.13094e-76
     0.385466  2.59403e-75
     0.402185  8.90855e-75
     0.418965  2.97995e-74
     0.435746  9.49521e-74
     0.452526  2.92075e-73
     0.469306  8.75159e-73
     0.486087  2.55352e-72
      0.50293  7.43864e-72
     0.519773  2.12405e-71
     0.536616  5.97982e-71
     0.553459   1.6629e-70
     0.570302  4.57148e-70
     0.587209  1.26016e-69
     0.604116  3.41926e-69
     0.621023  9.14967e-69
     0.637931  2.41586e-68
     0.654838  6.29468e-68
     0.671745  1.61878e-67
     0.688652  4.11186e-67
     0.705626  1.04398e-66
       0.7226  2.60937e-66
     0.739574  6.43279e-66
     0.756548  1.56491e-65
     0.773521  3.75688e-65
     0.790495  8.89831e-65
     0.807469  2.07875e-64
     0.824443  4.78828e-64
     0.841417  1.08735e-63
      0.85846  2.45138e-63
     0.875503   5.4415e-63
     0.892547  1.18995e-62
      0.90959  2.56438e-62
     0.926633  5.44854e-62
     0.943677  1.14199e-61
      0.96072  2.36313e-61
     0.977764  4.83273e-61
     0.994807   9.7789e-61
      1.01185  1.96065e-60
      1.02889  3.90042e-60
      1.04601  7.75195e-60
      1.06313  1.53247e-59
      1.08024  3.01737e-59
      1.09736  5.92176e-59
      1.11448  1.15856e-58
      1.13159  2.25866e-58
      1.14871  4.38346e-58
      1.16583  8.45518e-58
      1.18295  1.61757e-57
      1.20006   3.0614e-57
      1.21718  5.71436e-57
       1.2343  1.04807e-56
      1.25141  1.87988e-56
      1.26853  3.27601e-56
      1.28565   5.4918e-56
      1.30276   8.7064e-56
      1.31996  1.27112e-55
      1.33716  1.56048e-55
      1.35435  1.11691e-55
      1.37155 -1.77083e-55
      1.38875  -1.1369e-54
      1.40594 -3.76612e-54
      1.42314 -1.02931e-53
      1.44033 -2.54951e-53
      1.45753 -5.92266e-53
      1.47473 -1.31001e-52
      1.49192 -2.77622e-52
      1.50912 -5.64116e-52
      1.52632 -1.09424e-51
      1.54351 -2.00305e-51
      1.56071 -3.37346e-51
      1.57791 -4.90784e-51
       1.5951  -4.8993e-51
       1.6123  2.66738e-51
       1.6295   3.5788e-50
      1.64669  1.43905e-49
      1.66389  4.55799e-49
      1.68109   1.2946e-48
      1.69828  3.44869e-48
      1.71548  8.79953e-48
      1.73267  2.17565e-47
      1.74987  5.24965e-47
      1.76707  1.24199e-46
      1.78426  2.89047e-46
      1.80146  6.63302e-46
      1.81866  1.50356e-45
      1.83585  3.37125e-45
      1.85305  7.48507e-45
      1.87025  1.64707e-44
      1.88744  3.59462e-44
      1.90464  7.78533e-44
      1.92184  1.67418e-43
      1.93903  3.57615e-43
      1.95623  7.59062e-43
      1.97342   1.6015e-42
      1.99062  3.35962e-42
      2.00782   7.0093e-42
      2.02501  1.45472e-41
      2.04221  3.00397e-41
      2.05941   6.1731e-41
       2.0766  1.26264e-40
       2.0938  2.57093e-40
        2.111    5.212e-40
      2.12819  1.05216e-39
      2.14539  2.11535e-39
      2.16259  4.23598e-39
      2.17978  8.44982e-39
      2.19698  1.67922e-38
      2.21418  3.32486e-38
      2.23137  6.55966e-38
      2.24857  1.28961e-37
      2.26576  2.52661e-37
      2.28296  4.93334e-37
      2.30016  9.60028e-37
      2.31735  1.86201e-36
      2.33455  3.59951e-36
      2.35175  6.93546e-36
      2.36894  1.33193e-35
      2.38614  2.54954e-35
      2.40334  4.86433e-35
      2.42053  9.25066e-35
      2.43773  1.75358e-34
      2.45493  3.31361e-34
      2.47212  6.24212e-34
      2.48932  1.17235e-33
      2.50651   2.1954e-33
      2.52371  4.09969e-33
      2.54091  7.63511e-33
       2.5581  1.41824e-32
       2.5753  2.62782e-32
       2.5925  4.85726e-32
      2.60969  8.95721e-32
      2.62689  1.64805e-31
      2.64409  3.02556e-31
      2.66128  5.54236e-31
      2.67848  1.01308e-30
      2.69568  1.84773e-30
      2.71287  3.36246e-30
      2.73007  6.10462e-30
      2.74726  1.10557e-29
      2.76446  1.99698e-29
      2.78166  3.59701e-29
      2.79885  6.45956e-29
      2.81605   1.1563e-28
      2.83325  2.06283e-28
      2.85044  3.66687e-28
      2.86764  6.49387e-28
      2.88484  1.14559e-27
      2.90203  2.01297e-27
      2.91923    3.523e-27
      2.93643   6.1414e-27
      2.95362  1.06646e-26
      2.97082  1.84507e-26
      2.98802  3.18118e-26
      3.00521  5.46777e-26
      3.02241  9.37256e-26
       3.0396  1.60303e-25
       3.0568  2.73711e-25
        3.074  4.66836e-25
      3.09119  7.95824e-25
      3.10839  1.35676e-24
      3.12559  2.31449e-24
      3.14278  3.95246e-24
      3.15998  6.75899e-24
      3.17718  1.15765e-23
      3.19437  1.98592e-23
      3.21157  3.41166e-23
      3.22877  5.86749e-23
      3.24596  1.00977e-22
      3.26316  1.73792e-22
      3.28035   2.9895e-22
      3.29755  5.13619e-22
      3.31475  8.80784e-22
      3.33194  1.50665e-21
      3.34914  2.56934e-21
      3.36634  4.36599e-21
      3.38353   7.3894e-21
      3.40073  1.24524e-20
      3.41793  2.08876e-20
      3.43512  3.48677e-20
      3.45232  5.79156e-20
      3.46952  9.57128e-20
      3.48671  1.57382e-19
      3.50391  2.57519e-19
      3.52111  4.19413e-19
       3.5383  6.80175e-19
       3.5555   1.0989e-18
      3.57269  1.76964e-18
      3.58989  2.84211e-18
      3.60709  4.55451e-18
      3.62428  7.28589e-18
      3.64148  1.16396e-17
      3.65868   1.8577e-17
      3.67587   2.9632e-17
      3.69307  4.72576e-17
      3.71027  7.53917e-17
      3.72746  1.20394e-16
      3.74466   1.9262e-16
      3.76186  3.08772e-16
      3.77905  4.95655e-16
      3.79625  7.96602e-16
      3.81344  1.28016e-15
      3.83064  2.05738e-15
      3.84784  3.30696e-15
      3.86503  5.31434e-15
      3.88223  8.53549e-15
      3.89943  1.36931e-14
      3.91662  2.19298e-14
      3.93382  3.50428e-14
      3.95102  5.58442e-14
      3.96821  8.87124e-14
      3.98541  1.40425e-13
      4.00261   2.2142e-13
       4.0198  3.47673e-13
        4.037  5.43513e-13
       4.0542  8.45771e-13
      4.07139  1.30989e-12
      4.08859  2.01881e-12
      4.10578  3.09598e-12
      4.12298  4.72401e-12
      4.14018  7.17153e-12
      4.15737  1.08315e-11
      4.17457  1.62757e-11
      4.19177  2.43308e-11
      4.20896   3.6186e-11
      4.22616  5.35429e-11
      4.24336  7.88227e-11
      4.26055  1.15452e-10
      4.27775  1.68253e-10
      4.29495  2.43977e-10
      4.31214  3.52034e-10
      4.32934  5.05457e-10
      4.34653  7.22212e-10
      4.36373  1.02694e-09
      4.38093  1.45326e-09
      4.39812  2.04682e-09
      4.41532  2.86928e-09
      4.43252  4.00356e-09
      4.44971  5.56052e-09
      4.46691  7.68773e-09
      4.48411  1.05806e-08
       4.5013  1.44969e-08
       4.5185  1.97746e-08
       4.5357  2.68552e-08
      4.55289  3.63124e-08
      4.57009  4.88885e-08
      4.58729  6.55403e-08
      4.60448  8.74905e-08
      4.62168  1.16299e-07
      4.63887   1.5395e-07
      4.65607  2.02951e-07
      4.67327   2.6646e-07
      4.69046  3.48432e-07
      4.70766  4.53803e-07
      4.72486  5.88699e-07
      4.74205  7.60675e-07
      4.75925  9.79064e-07
      4.77645   1.2553e-06
      4.79364  1.60334e-06
      4.81084  2.04013e-06
      4.82804   2.5862e-06
      4.84523  3.26628e-06
      4.86243  4.10999e-06
      4.87962  5.15266e-06
      4.89682   6.4363e-06
      4.91402  8.01066e-06
      4.93121  9.93444e-06
      4.94841  1.22763e-05
      4.96561  1.51166e-05
       4.9828  1.85484e-05
            5  2.26796e-05
      5.01718  2.76297e-05
      5.03436  3.35441e-05
      5.05155  4.05849e-05
      5.06873  4.89363e-05
      5.08591  5.88063e-05
      5.10309   7.0429e-05
      5.12027  8.40667e-05
      5.13746  0.000100012
      5.15464  0.000118588
      5.17182  0.000140155
        5.189  0.000165103
      5.20619  0.000193865
      5.22337  0.000226909
      5.24055  0.000264741
      5.25773  0.000307895
      5.27491  0.000356951
       5.2921  0.000412522
      5.30928  0.000475263
      5.32646  0.000545858
      5.34364  0.000625024
      5.36082  0.000713501
      5.37801  0.000812046
      5.39519  0.000921432
      5.41237   0.00104246
      5.42955   0.00117593
      5.44674   0.00132262
      5.46392   0.00148335
       5.4811   0.00165889
      5.49828   0.00185002
      5.51546   0.00205748
      5.53265   0.00228197
      5.54983   0.00252417
      5.56701   0.00278465
      5.58419   0.00306395
      5.60137   0.00336249
      5.61856   0.00368067
      5.63574   0.00401882
      5.65292   0.00437715
       5.6701   0.00475572
      5.68729   0.00515448
      5.70447   0.00557325
      5.72165   0.00601174
      5.73883   0.00646952
      5.75601   0.00694608
       5.7732   0.00744086
      5.79038   0.00795314
      5.80756   0.00848201
      5.82474   0.00902643
      5.84192   0.00958529
      5.85911    0.0101573
      5.87629    0.0107411
      5.89347    0.0113353
      5.91065    0.0119383
      5.92784    0.0125486
      5.94502    0.0131646
       5.9622    0.0137847
      5.97938    0.0144071
      5.99656    0.0150302
      6.01375     0.015652
      6.03093    0.0162707
      6.04811    0.0168848
      6.06529    0.0174923
      6.08247    0.0180918
      6.09966    0.0186815
      6.11684      0.01926
      6.13402    0.0198256
       6.1512    0.0203772
      6.16838    0.0209135
      6.18557    0.0214332
      6.20275    0.0219351
      6.21993    0.0224182
      6.23711    0.0228818
       6.2543     0.023325
      6.27148    0.0237473
      6.28866    0.0241481
      6.30584    0.0245271
      6.32302    0.0248844
      6.34021    0.0252193
      6.35739     0.025532
      6.37457    0.0258224
      6.39175    0.0260906
      6.40893    0.0263368
      6.42612    0.0265612
       6.4433    0.0267643
      6.46048    0.0269463
      6.47766    0.0271079
      6.49485    0.0272495
      6.51203    0.0273722
      6.52921    0.0274763
      6.54639    0.0275627
      6.56357    0.0276321
      6.58076    0.0276858
      6.59794    0.0277245
      6.61512     0.027749
       6.6323    0.0277605
      6.64948      0.02776
      6.66667    0.0277482
      6.68385    0.0277269
      6.70103    0.0276976
      6.71821    0.0276613
       6.7354    0.0276182
      6.75258    0.0275678
      6.76976    0.0275102
      6.78694    0.0274475
      6.80412    0.0273812
      6.82131    0.0273122
      6.83849    0.0272412
      6.85567    0.0271684
      6.87285    0.0270944
      6.89003    0.0270199
      6.90722    0.0269453
       6.9244    0.0268706
      6.94158    0.0267961
      6.95876    0.0267215
      6.97595    0.0266465
      6.99313    0.0265708
      7.01031     0.026495
      7.02749    0.0264197
      7.04467    0.0263456
      7.06186    0.0262731
      7.07904    0.0262026
      7.09622    0.0261344
       7.1134    0.0260684
      7.13058    0.0260048
      7.14777    0.0259438
      7.16495    0.0258851
      7.18213    0.0258288
      7.19931    0.0257747
      7.21649    0.0257226
      7.23368    0.0256722
      7.25086    0.0256231
      7.26804    0.0255754
      7.28522     0.025529
      7.30241    0.0254843
      7.31959    0.0254415
      7.33677    0.0254006
      7.35395    0.0253614
      7.37113    0.0253239
      7.38832    0.0252881
       7.4055    0.0252541
      7.42268    0.0252221
      7.43986     0.025192
      7.45704    0.0251637
      7.47423    0.0251368
      7.49141    0.0251111
      7.50859    0.0250865
      7.52577    0.0250626
      7.54296    0.0250393
      7.56014    0.0250165
      7.57732    0.0249941
       7.5945    0.0249717
      7.61168    0.0249491
      7.62887    0.0249262
      7.64605    0.0249029
      7.66323    0.0248789
      7.68041    0.0248541
      7.69759    0.0248284
      7.71478    0.0248018
      7.73196    0.0247742
      7.74914    0.0247454
      7.76632    0.0247153
      7.78351    0.0246839
      7.80069    0.0246508
      7.81787    0.0246162
      7.83505    0.0245802
      7.85223     0.024543
      7.86942    0.0245047
       7.8866    0.0244656
      7.90378    0.0244258
      7.92096    0.0243854
      7.93814    0.0243445
      7.95533    0.0243031
      7.97251    0.0242611
      7.98969    0.0242188
      8.00687    0.0241763
      8.02405    0.0241336
      8.04124    0.0240905
      8.05842     0.024047
       8.0756    0.0240031
      8.09278    0.0239588
      8.10997    0.0239142
      8.12715    0.0238692
      8.14433     0.023824
      8.16151    0.0237787
      8.17869    0.0237331
      8.19588    0.0236869
      8.21306    0.0236401
      8.23024    0.0235927
      8.24742    0.0235448
       8.2646    0.0234963
      8.28179    0.0234475
      8.29897    0.0233983
      8.31615    0.0233485
      8.33333    0.0232982
      8.35052    0.0232472
       8.3677    0.0231957
      8.38488    0.0231437
      8.40206    0.0230911
      8.41924    0.0230381
      8.43643    0.0229847
      8.45361    0.0229309
      8.47079    0.0228764
      8.48797    0.0228212
      8.50515    0.0227652
      8.52234    0.0227083
      8.53952    0.0226506
       8.5567    0.0225921
      8.57388    0.0225326
      8.59107    0.0224721
      8.60825    0.0224106
      8.62543    0.0223479
      8.64261    0.0222842
      8.65979    0.0222192
      8.67698     0.022153
      8.69416    0.0220853
      8.71134     0.022016
      8.72852    0.0219453
       8.7457     0.021873
      8.76289    0.0217991
      8.78007    0.0217233
      8.79725    0.0216457
      8.81443    0.0215664
      8.83162    0.0214854
       8.8488    0.0214026
      8.86598    0.0213182
      8.88316    0.0212319
      8.90034     0.021144
      8.91753    0.0210543
      8.93471    0.0209629
      8.95189    0.0208699
      8.96907    0.0207754
      8.98625    0.0206794
      9.00344    0.0205819
      9.02062    0.0204831
       9.0378    0.0203831
      9.05498    0.0202819
      9.07216    0.0201795
      9.08935    0.0200758
      9.10653    0.0199709
      9.12371    0.0198648
      9.14089    0.0197576
      9.15808    0.0196495
      9.17526    0.0195404
      9.19244    0.0194307
      9.20962    0.0193202
       9.2268     0.019209
      9.24399     0.019097
      9.26117    0.0189842
      9.27835    0.0188705
      9.29553    0.0187559
      9.31271    0.0186406
       9.3299    0.0185246
      9.34708    0.0184078
      9.36426    0.0182904
      9.38144    0.0181724
      9.39863    0.0180538
      9.41581    0.0179347
      9.43299    0.0178151
      9.45017    0.0176954
      9.46735    0.0175755
      9.48454    0.0174555
      9.50172    0.0173355
       9.5189    0.0172156
      9.53608    0.0170958
      9.55326    0.0169761
      9.57045    0.0168566
      9.58763    0.0167373
      9.60481    0.0166182
      9.62199    0.0164994
      9.63918    0.0163808
      9.65636    0.0162623
      9.67354     0.016144
      9.69072     0.016026
       9.7079    0.0159082
      9.72509    0.0157907
      9.74227    0.0156737
      9.75945    0.0155569
      9.77663    0.0154404
      9.79381    0.0153244
        9.811    0.0152089
      9.82818    0.0150938
      9.84536    0.0149793
      9.86254    0.0148655
      9.87973    0.0147523
      9.89691      0.01464
      9.91409    0.0145285
      9.93127    0.0144179
      9.94845    0.0143081
      9.96564    0.0141991
      9.98282    0.0140909
           10    0.0139834
      10.0172    0.0138767
      10.0344    0.0137707
      10.0515    0.0136654
      10.0687    0.0135608
      10.0859    0.0134569
      10.1031    0.0133536
      10.1203     0.013251
      10.1375    0.0131491
      10.1546    0.0130479
      10.1718    0.0129475
       10.189    0.0128479
      10.2062     0.012749
      10.2234    0.0126509
      10.2405    0.0125535
      10.2577    0.0124569
      10.2749    0.0123611
      10.2921    0.0122661
      10.3093    0.0121719
      10.3265    0.0120785
      10.3436     0.011986
      10.3608    0.0118943
       10.378    0.0118036
      10.3952    0.0117137
      10.4124    0.0116246
      10.4296    0.0115364
      10.4467     0.011449
      10.4639    0.0113624
      10.4811    0.0112765
      10.4983    0.0111915
      10.5155    0.0111072
      10.5326    0.0110236
      10.5498    0.0109408
       10.567    0.0108587
      10.5842    0.0107773
      10.6014    0.0106965
      10.6186    0.0106164
      10.6357    0.0105368
      10.6529    0.0104578
      10.6701    0.0103793
      10.6873    0.0103012
      10.7045    0.0102236
      10.7216    0.0101463
      10.7388    0.0100693
       10.756   0.00999272
      10.7732   0.00991651
      10.7904   0.00984072
      10.8076    0.0097654
      10.8247   0.00969057
      10.8419   0.00961627
      10.8591   0.00954252
      10.8763   0.00946934
      10.8935   0.00939673
      10.9107   0.00932466
      10.9278   0.00925317
       10.945   0.00918225
      10.9622    0.0091119
      10.9794   0.00904211
      10.9966   0.00897287
      11.0137   0.00890414
      11.0309   0.00883591
      11.0481   0.00876816
      11.0653   0.00870088
      11.0825   0.00863403
      11.0997   0.00856763
      11.1168   0.00850168
       11.134   0.00843618
      11.1512   0.00837114
      11.1684   0.00830654
      11.1856   0.00824238
      11.2027   0.00817867
      11.2199   0.00811543
      11.2371   0.00805264
      11.2543    0.0079903
      11.2715   0.00792839
      11.2887    0.0078669
      11.3058   0.00780582
       11.323   0.00774513
      11.3402   0.00768482
      11.3574   0.00762489
      11.3746   0.00756534
      11.3918   0.00750616
      11.4089   0.00744734
      11.4261   0.00738889
      11.4433   0.00733082
      11.4605   0.00727314
      11.4777   0.00721585
      11.4948   0.00715893
       11.512   0.00710241
      11.5292   0.00704628
      11.5464   0.00699055
      11.5636   0.00693521
      11.5808   0.00688027
      11.5979   0.00682572
      11.6151   0.00677156
      11.6323   0.00671779
      11.6495    0.0066644
      11.6667   0.00661141
      11.6838   0.00655887
       11.701   0.00650678
      11.7182   0.00645512
      11.7354    0.0064039
      11.7526   0.00635307
      11.7698   0.00630262
      11.7869   0.00625264
      11.8041   0.00620319
      11.8213   0.00615434
      11.8385   0.00610613
      11.8557   0.00605864
      11.8729   0.00601189
        11.89   0.00596588
      11.9072   0.00592063
      11.9244   0.00587618
      11.9416   0.00583244
      11.9588   0.00578945
      11.9759   0.00574716
      11.9931   0.00570563
      12.0103   0.00566493
      12.0275   0.00562515
      12.0447   0.00558632
      12.0619   0.00554838
       12.079   0.00551133
      12.0962   0.00547519
      12.1134   0.00543992
      12.1306   0.00540551
      12.1478     0.005372
      12.1649    0.0053394
      12.1821   0.00530773
      12.1993   0.00527698
      12.2165   0.00524717
      12.2337   0.00521835
      12.2509    0.0051905
       12.268   0.00516362
      12.2852   0.00513768
      12.3024   0.00511275
      12.3196   0.00508882
      12.3368   0.00506582
       12.354   0.00504371
      12.3711   0.00502246
      12.3883   0.00500204
      12.4055   0.00498248
      12.4227    0.0049639
      12.4399   0.00494629
       12.457   0.00492958
      12.4742   0.00491367
      12.4914   0.00489844
      12.5086   0.00488388
      12.5258   0.00486991
       12.543   0.00485645
      12.5601   0.00484346
      12.5773   0.00483091
      12.5945   0.00481875
      12.6117   0.00480694
      12.6289   0.00479544
       12.646   0.00478421
      12.6632   0.00477327
      12.6804    0.0047626
      12.6976   0.00475221
      12.7148   0.00474209
       12.732   0.00473226
      12.7491   0.00472269
      12.7663   0.00471333
      12.7835   0.00470414
      12.8007   0.00469511
      12.8179   0.00468617
      12.8351   0.00467734
      12.8522   0.00466859
      12.8694    0.0046599
      12.8866   0.00465125
      12.9038   0.00464262
       12.921   0.00463404
      12.9381   0.00462549
      12.9553   0.00461692
      12.9725   0.00460834
      12.9897   0.00459981
      13.0069   0.00459131
      13.0241   0.00458282
      13.0412   0.00457435
      13.0584   0.00456588
      13.0756   0.00455743
      13.0928   0.00454901
        13.11   0.00454059
      13.1271   0.00453216
      13.1443   0.00452368
      13.1615   0.00451517
      13.1787   0.00450664
      13.1959   0.00449808
      13.2131   0.00448947
      13.2302   0.00448081
      13.2474   0.00447211
      13.2646   0.00446338
      13.2818   0.00445458
       13.299   0.00444574
      13.3162   0.00443687
      13.3333   0.00442796
      13.3505   0.00441901
      13.3677   0.00441004
      13.3849   0.00440103
      13.4021   0.00439199
      13.4192   0.00438292
      13.4364   0.00437383
      13.4536   0.00436471
      13.4708   0.00435559
       13.488   0.00434646
      13.5052   0.00433732
      13.5223   0.00432818
