#         Time        auto1        auto2
         0.86            (0 0.0697566 0)            (-2.60579e-06 0.0697047 1.85722e-07)
        0.865            (0 0.0659836 0)            (-2.67343e-06 0.0659424 3.77464e-07)
         0.87            (0 0.060832 0)            (-2.78382e-06 0.0608041 6.57033e-07)
        0.875            (0 0.0544288 0)            (-2.91771e-06 0.0544114 1.0794e-06)
         0.88            (0 0.0469316 0)            (-2.90951e-06 0.0469217 1.37904e-06)
        0.885            (0 0.0385251 0)            (-3.03625e-06 0.0385238 1.34516e-06)
         0.89            (0 0.0294161 0)            (-3.09592e-06 0.0294256 7.17825e-07)
        0.895            (0 0.0198291 0)            (-2.98284e-06 0.0198485 1.25396e-06)
          0.9            (0 0.01 0)            (-2.8807e-06 0.0100245 1.48391e-06)
        0.905            (0 0.000170933 0)            (-3.07566e-06 0.000202849 1.81181e-06)
         0.91            (0 -0.00941611 0)            (-3.31467e-06 -0.0093666 2.05233e-06)
        0.915            (0 -0.0185251 0)            (-3.56401e-06 -0.0184724 2.31505e-06)
         0.92            (0 -0.0269316 0)            (-3.81687e-06 -0.0268805 2.46137e-06)
        0.925            (0 -0.0344288 0)            (-3.71748e-06 -0.0343773 2.68394e-06)
         0.93            (0 -0.040832 0)            (-3.79189e-06 -0.0407807 2.8528e-06)
        0.935            (0 -0.0459836 0)            (-3.91577e-06 -0.0459334 3.023e-06)
         0.94            (0 -0.0497566 0)            (-3.89361e-06 -0.0497071 3.39724e-06)
        0.945            (0 -0.0520583 0)            (-3.93183e-06 -0.0520091 3.35317e-06)
         0.95            (0 -0.0528319 0)            (-3.9158e-06 -0.0527841 3.3598e-06)
        0.955            (0 -0.0520583 0)            (-3.8683e-06 -0.0520136 3.33199e-06)
         0.96            (0 -0.0497566 0)            (-3.78129e-06 -0.0497161 3.30094e-06)
        0.965            (0 -0.0459836 0)            (-3.64341e-06 -0.045949 3.27415e-06)
         0.97            (0 -0.040832 0)            (-3.45605e-06 -0.0408042 3.04396e-06)
        0.975            (0 -0.0344288 0)            (-3.21316e-06 -0.0344106 2.70846e-06)
         0.98            (0 -0.0269316 0)            (-3.20818e-06 -0.0269234 2.77115e-06)
        0.985            (0 -0.0185251 0)            (-3.04609e-06 -0.0185243 2.63593e-06)
         0.99            (0 -0.00941611 0)            (-2.64611e-06 -0.00942596 2.09007e-06)
        0.995            (0 0.000170933 0)            (-2.55057e-06 0.000150183 2.08878e-06)
            1            (0 0.01 0)            (-2.33386e-06 0.00995809 1.90672e-06)
