# Region type : patch outlet
# Faces       : 320
# Area        : 1.950845e-05
# Scale factor: 1.000000e+00
# Time        	areaAverage(s)
1.2e-06       	0.000000e+00
2.64e-06      	0.000000e+00
4.368e-06     	0.000000e+00
6.4416e-06    	0.000000e+00
8.92992e-06   	0.000000e+00
1.19159e-05   	0.000000e+00
1.54991e-05   	0.000000e+00
1.97989e-05   	0.000000e+00
2.49587e-05   	0.000000e+00
3.11504e-05   	0.000000e+00
3.85805e-05   	0.000000e+00
4.74965e-05   	0.000000e+00
5.81958e-05   	0.000000e+00
7.1035e-05    	0.000000e+00
8.6442e-05    	0.000000e+00
0.00010493    	0.000000e+00
0.000127116   	0.000000e+00
0.00015374    	0.000000e+00
0.000185688   	0.000000e+00
0.000224025   	0.000000e+00
0.00027003    	0.000000e+00
0.000325236   	0.000000e+00
0.000391483   	0.000000e+00
0.00047098    	0.000000e+00
0.000566376   	0.000000e+00
0.00068085    	0.000000e+00
0.000818221   	0.000000e+00
0.000983063   	0.000000e+00
0.00118087    	0.000000e+00
0.00141824    	0.000000e+00
0.0017031     	0.000000e+00
0.00204491    	0.000000e+00
0.00245508    	0.000000e+00
0.0029473     	0.000000e+00
0.00353797    	0.000000e+00
0.00424679    	0.000000e+00
0.00509742    	0.000000e+00
0.00611825    	0.000000e+00
0.00734314    	0.000000e+00
0.00881286    	0.000000e+00
0.0105765     	0.000000e+00
0.0126925     	0.000000e+00
0.0152319     	0.000000e+00
0.0182788     	0.000000e+00
0.0219337     	0.000000e+00
0.0263197     	0.000000e+00
0.0315829     	0.000000e+00
0.037896      	0.000000e+00
0.0454717     	0.000000e+00
0.0545626     	0.000000e+00
0.0654797     	2.639300e-297
0.0785686     	7.114844e-268
0.094292      	1.742370e-240
0.11316       	5.717133e-215
0.135784      	2.173127e-190
0.162959      	2.651110e-164
0.195641      	1.276890e-135
0.235021      	7.556116e-113
0.280839      	-4.168251e-95
0.333274      	-1.758736e-79
0.392346      	-5.641609e-70
0.455465      	-9.101889e-62
0.517719      	-3.517132e-58
0.579973      	-1.655877e-55
0.642226      	1.394398e-54
0.70448       	6.124588e-54
0.766734      	-3.921641e-54
0.828988      	-1.905837e-53
0.891242      	-1.981287e-52
0.953496      	-2.649500e-51
1.01575       	-2.864262e-50
1.078         	-2.478838e-49
1.14026       	-2.189094e-48
1.20251       	-1.560522e-47
1.26477       	-9.314833e-47
1.32702       	-4.205323e-46
1.38927       	-9.503147e-46
1.45153       	4.640987e-45
1.51378       	8.156734e-44
1.57604       	6.990643e-43
1.63829       	4.647995e-42
1.70054       	2.646772e-41
1.7628        	1.343366e-40
1.82505       	6.208514e-40
1.8873        	2.549185e-39
1.94956       	9.895650e-39
2.01181       	3.685183e-38
2.07407       	1.347938e-37
2.13632       	4.988234e-37
2.19857       	1.923001e-36
2.26083       	7.835676e-36
2.32308       	3.337457e-35
2.38534       	1.441758e-34
2.44759       	6.115025e-34
2.50984       	2.479951e-33
2.5721        	9.433217e-33
2.63435       	3.306870e-32
2.69661       	1.042833e-31
2.75886       	2.817857e-31
2.82111       	5.636445e-31
2.88337       	1.909475e-31
2.94562       	-5.874614e-30
3.00787       	-4.166309e-29
3.07013       	-2.048040e-28
3.13238       	-8.492687e-28
3.19464       	-3.146300e-27
3.25689       	-1.064736e-26
3.31914       	-3.289921e-26
3.3814        	-9.267470e-26
3.44365       	-2.333253e-25
3.50591       	-4.964950e-25
3.56816       	-7.209445e-25
3.63041       	4.203212e-25
3.69267       	9.211412e-24
3.75492       	5.016337e-23
3.81718       	2.094693e-22
3.87943       	7.684705e-22
3.94168       	2.622431e-21
4.00394       	8.389665e-21
4.06619       	2.553674e-20
4.12845       	7.466245e-20
4.1907        	2.109846e-19
4.25295       	5.780320e-19
4.31521       	1.541399e-18
4.37746       	4.012259e-18
4.43971       	1.020471e-17
4.50197       	2.540310e-17
4.56422       	6.192210e-17
4.62648       	1.478656e-16
4.68873       	3.459814e-16
4.75098       	7.934170e-16
4.81324       	1.786384e-15
4.87549       	3.949444e-15
4.93775       	8.590201e-15
5             	1.838131e-14
5.0625        	3.888562e-14
5.125         	8.103555e-14
5.1875        	1.663443e-13
5.25          	3.364504e-13
5.3125        	6.708806e-13
5.375         	1.319266e-12
5.4375        	2.558910e-12
5.5           	4.896172e-12
5.5625        	9.246011e-12
5.625         	1.724251e-11
5.6875        	3.173883e-11
5.75          	5.769865e-11
5.8125        	1.036407e-10
5.875         	1.839350e-10
5.9375        	3.226493e-10
6             	5.593814e-10
6.0625        	9.587988e-10
6.125         	1.624521e-09
6.1875        	2.722713e-09
6.25          	4.513785e-09
6.3125        	7.404513e-09
6.375         	1.201785e-08
6.4375        	1.930221e-08
6.5           	3.068776e-08
6.5625        	4.829223e-08
6.625         	7.523077e-08
6.6875        	1.160385e-07
6.75          	1.772565e-07
6.8125        	2.682538e-07
6.875         	4.020583e-07
6.9375        	5.969044e-07
7             	8.779692e-07
7.0625        	1.279653e-06
7.125         	1.848264e-06
7.1875        	2.645217e-06
7.25          	3.752634e-06
7.3125        	5.276822e-06
7.375         	7.358027e-06
7.4375        	1.017125e-05
7.5           	1.393815e-05
7.5625        	1.894163e-05
7.625         	2.553024e-05
7.6875        	3.413334e-05
7.75          	4.526563e-05
7.8125        	5.954800e-05
7.875         	7.769902e-05
7.9375        	1.005886e-04
8             	1.292416e-04
8.0625        	1.647562e-04
8.125         	2.084490e-04
8.1875        	2.617573e-04
8.25          	3.263288e-04
8.3125        	4.038436e-04
8.375         	4.961741e-04
8.4375        	6.053043e-04
8.5           	7.331830e-04
8.5625        	8.817604e-04
8.625         	1.053367e-03
8.6875        	1.249822e-03
8.75          	1.473265e-03
8.8125        	1.725082e-03
8.875         	2.007178e-03
8.9375        	2.320087e-03
9             	2.665340e-03
9.0625        	3.042531e-03
9.125         	3.451990e-03
9.1875        	3.892855e-03
9.25          	4.365561e-03
9.3125        	4.866829e-03
9.375         	5.394600e-03
9.4375        	5.947162e-03
9.5           	6.519574e-03
9.5625        	7.107813e-03
9.625         	7.708616e-03
9.6875        	8.317903e-03
9.75          	8.931482e-03
9.8125        	9.545128e-03
9.875         	1.015197e-02
9.9375        	1.074592e-02
10            	1.132316e-02
10.0625       	1.188166e-02
10.125        	1.241289e-02
10.1875       	1.291732e-02
10.25         	1.338909e-02
10.3125       	1.382562e-02
10.375        	1.422307e-02
10.4375       	1.457893e-02
10.5          	1.489473e-02
10.5625       	1.516755e-02
10.625        	1.539766e-02
10.6875       	1.558837e-02
10.75         	1.573479e-02
10.8125       	1.584582e-02
10.875        	1.591923e-02
10.9375       	1.595541e-02
11            	1.595812e-02
11.0625       	1.593048e-02
11.125        	1.587370e-02
11.1875       	1.579717e-02
11.25         	1.570085e-02
11.3125       	1.558673e-02
11.375        	1.545916e-02
11.4375       	1.531740e-02
11.5          	1.517008e-02
11.5625       	1.501579e-02
11.625        	1.485402e-02
11.6875       	1.468985e-02
11.75         	1.452163e-02
11.8125       	1.435236e-02
11.875        	1.418609e-02
11.9375       	1.401964e-02
12            	1.385553e-02
12.0625       	1.369576e-02
12.125        	1.354093e-02
12.1875       	1.339006e-02
12.25         	1.324430e-02
12.3125       	1.310302e-02
12.375        	1.296386e-02
12.4375       	1.283023e-02
12.5          	1.270082e-02
12.5625       	1.257663e-02
12.625        	1.245525e-02
12.6875       	1.233428e-02
12.75         	1.221380e-02
12.8125       	1.209445e-02
12.875        	1.197685e-02
12.9375       	1.185763e-02
13            	1.173745e-02
13.0625       	1.161613e-02
13.125        	1.149576e-02
13.1875       	1.137300e-02
13.25         	1.124812e-02
13.3125       	1.112314e-02
13.375        	1.099823e-02
13.4375       	1.087314e-02
13.5          	1.074660e-02
13.5625       	1.062090e-02
13.625        	1.049503e-02
13.6875       	1.036844e-02
13.75         	1.024309e-02
13.8125       	1.011952e-02
13.875        	9.995199e-03
13.9375       	9.870435e-03
14            	9.746322e-03
14.0625       	9.625182e-03
14.125        	9.503423e-03
14.1875       	9.382276e-03
14.25         	9.261464e-03
14.3125       	9.140375e-03
14.375        	9.019413e-03
14.4375       	8.899154e-03
14.5          	8.778818e-03
14.5625       	8.658003e-03
14.625        	8.539496e-03
14.6875       	8.421114e-03
14.75         	8.305626e-03
14.8125       	8.192490e-03
14.875        	8.079980e-03
14.9375       	7.969080e-03
15            	7.861117e-03
15.0625       	7.755003e-03
15.125        	7.651861e-03
15.1875       	7.551584e-03
15.25         	7.454193e-03
15.3125       	7.358466e-03
15.375        	7.267050e-03
15.4375       	7.177657e-03
15.5          	7.090679e-03
15.5625       	7.006990e-03
15.625        	6.926773e-03
15.6875       	6.849855e-03
15.75         	6.774706e-03
15.8125       	6.702918e-03
15.875        	6.634222e-03
15.9375       	6.566626e-03
16            	6.502854e-03
16.0625       	6.440348e-03
16.125        	6.380326e-03
16.1875       	6.320808e-03
16.25         	6.264126e-03
16.3125       	6.209125e-03
16.375        	6.154912e-03
16.4375       	6.101958e-03
16.5          	6.051587e-03
16.5625       	6.002674e-03
16.625        	5.954007e-03
16.6875       	5.907070e-03
16.75         	5.861701e-03
16.8125       	5.816573e-03
16.875        	5.771838e-03
16.9375       	5.728742e-03
17            	5.685584e-03
17.0625       	5.643684e-03
17.125        	5.601684e-03
17.1875       	5.560554e-03
17.25         	5.521097e-03
17.3125       	5.481461e-03
17.375        	5.441909e-03
17.4375       	5.402966e-03
17.5          	5.364809e-03
17.5625       	5.326951e-03
17.625        	5.289887e-03
17.6875       	5.253822e-03
17.75         	5.218159e-03
17.8125       	5.182869e-03
17.875        	5.147716e-03
17.9375       	5.113097e-03
18            	5.078136e-03
18.0625       	5.043642e-03
18.125        	5.009162e-03
18.1875       	4.974788e-03
18.25         	4.940755e-03
18.3125       	4.906486e-03
18.375        	4.873189e-03
18.4375       	4.838970e-03
18.5          	4.804659e-03
18.5625       	4.771163e-03
18.625        	4.737489e-03
18.6875       	4.704037e-03
18.75         	4.669802e-03
18.8125       	4.636347e-03
18.875        	4.602681e-03
18.9375       	4.568382e-03
19            	4.533812e-03
19.0625       	4.499047e-03
19.125        	4.464699e-03
19.1875       	4.429983e-03
19.25         	4.395283e-03
19.3125       	4.361095e-03
19.375        	4.326891e-03
19.4375       	4.293189e-03
19.5          	4.259003e-03
19.5625       	4.224750e-03
19.625        	4.191666e-03
19.6875       	4.158852e-03
19.75         	4.125601e-03
19.8125       	4.092811e-03
19.875        	4.060302e-03
19.9375       	4.026998e-03
20            	3.993627e-03
20.0625       	3.960511e-03
20.125        	3.928217e-03
20.1875       	3.895588e-03
20.25         	3.862919e-03
20.3125       	3.830706e-03
20.375        	3.798062e-03
20.4375       	3.766095e-03
20.5          	3.733634e-03
20.5625       	3.701693e-03
20.625        	3.669461e-03
20.6875       	3.637816e-03
20.75         	3.606319e-03
20.8125       	3.574308e-03
20.875        	3.543003e-03
20.9375       	3.511550e-03
21            	3.480044e-03
21.0625       	3.449203e-03
21.125        	3.418459e-03
21.1875       	3.388041e-03
21.25         	3.357510e-03
21.3125       	3.327287e-03
21.375        	3.297959e-03
21.4375       	3.268271e-03
21.5          	3.239608e-03
21.5625       	3.211515e-03
21.625        	3.184054e-03
21.6875       	3.156815e-03
21.75         	3.130023e-03
21.8125       	3.103980e-03
21.875        	3.078023e-03
21.9375       	3.052962e-03
22            	3.028388e-03
22.0625       	3.004278e-03
22.125        	2.980781e-03
22.1875       	2.957597e-03
22.25         	2.935033e-03
22.3125       	2.913537e-03
22.375        	2.892203e-03
22.4375       	2.871610e-03
22.5          	2.851583e-03
22.5625       	2.832242e-03
22.625        	2.813086e-03
22.6875       	2.794735e-03
22.75         	2.777037e-03
22.8125       	2.759657e-03
22.875        	2.743175e-03
22.9375       	2.726824e-03
23            	2.711302e-03
23.0625       	2.696067e-03
23.125        	2.681157e-03
23.1875       	2.667160e-03
23.25         	2.653155e-03
23.3125       	2.639700e-03
23.375        	2.626703e-03
23.4375       	2.614497e-03
23.5          	2.602552e-03
23.5625       	2.591385e-03
23.625        	2.580403e-03
23.6875       	2.570169e-03
23.75         	2.560087e-03
23.8125       	2.550285e-03
23.875        	2.540835e-03
23.9375       	2.531740e-03
24            	2.522542e-03
24.0625       	2.513862e-03
24.125        	2.505513e-03
24.1875       	2.497059e-03
24.25         	2.488805e-03
24.3125       	2.481145e-03
24.375        	2.473451e-03
24.4375       	2.466132e-03
24.5          	2.458688e-03
24.5625       	2.451574e-03
24.625        	2.444610e-03
24.6875       	2.437387e-03
24.75         	2.430328e-03
24.8125       	2.423871e-03
24.875        	2.417174e-03
24.9375       	2.410765e-03
25            	2.404121e-03
25.0625       	2.397654e-03
25.125        	2.391427e-03
25.1875       	2.385311e-03
25.25         	2.378780e-03
25.3125       	2.372058e-03
25.375        	2.365789e-03
25.4375       	2.359463e-03
25.5          	2.353179e-03
25.5625       	2.346805e-03
25.625        	2.340609e-03
25.6875       	2.334191e-03
25.75         	2.327519e-03
25.8125       	2.321189e-03
25.875        	2.314730e-03
25.9375       	2.308127e-03
26            	2.301440e-03
26.0625       	2.294717e-03
26.125        	2.287922e-03
26.1875       	2.281122e-03
26.25         	2.274253e-03
26.3125       	2.267403e-03
26.375        	2.260582e-03
26.4375       	2.253597e-03
26.5          	2.246206e-03
26.5625       	2.238599e-03
26.625        	2.231122e-03
26.6875       	2.223589e-03
26.75         	2.215803e-03
26.8125       	2.208079e-03
26.875        	2.200208e-03
26.9375       	2.192087e-03
27            	2.183860e-03
27.0625       	2.175863e-03
27.125        	2.167560e-03
27.1875       	2.159266e-03
27.25         	2.150872e-03
27.3125       	2.142354e-03
27.375        	2.133617e-03
27.4375       	2.124802e-03
27.5          	2.116055e-03
27.5625       	2.107151e-03
27.625        	2.097855e-03
27.6875       	2.088655e-03
27.75         	2.079329e-03
27.8125       	2.070035e-03
27.875        	2.060475e-03
27.9375       	2.050723e-03
28            	2.040849e-03
28.0625       	2.031190e-03
28.125        	2.021275e-03
28.1875       	2.011131e-03
28.25         	2.000864e-03
28.3125       	1.990886e-03
28.375        	1.980644e-03
28.4375       	1.970250e-03
28.5          	1.959854e-03
28.5625       	1.949459e-03
28.625        	1.938944e-03
28.6875       	1.928259e-03
28.75         	1.917467e-03
28.8125       	1.906643e-03
28.875        	1.895632e-03
28.9375       	1.884591e-03
29            	1.873715e-03
29.0625       	1.862889e-03
29.125        	1.851999e-03
29.1875       	1.840821e-03
29.25         	1.829337e-03
29.3125       	1.817980e-03
29.375        	1.806489e-03
29.4375       	1.795044e-03
29.5          	1.783619e-03
29.5625       	1.772355e-03
29.625        	1.760849e-03
29.6875       	1.749557e-03
29.75         	1.738285e-03
29.8125       	1.727080e-03
29.875        	1.715699e-03
29.9375       	1.704447e-03
30            	1.693108e-03
30.0625       	1.681827e-03
30.125        	1.670506e-03
30.1875       	1.659238e-03
30.25         	1.647738e-03
30.3125       	1.636306e-03
30.375        	1.625048e-03
30.4375       	1.613814e-03
30.5          	1.602385e-03
30.5625       	1.591258e-03
30.625        	1.580028e-03
30.6875       	1.568939e-03
30.75         	1.557878e-03
30.8125       	1.546690e-03
30.875        	1.535578e-03
30.9375       	1.524530e-03
31            	1.513503e-03
31.0625       	1.502435e-03
31.125        	1.491400e-03
31.1875       	1.480479e-03
31.25         	1.469784e-03
31.3125       	1.458969e-03
31.375        	1.448330e-03
31.4375       	1.437591e-03
31.5          	1.427110e-03
31.5625       	1.416628e-03
31.625        	1.406116e-03
31.6875       	1.395696e-03
31.75         	1.385134e-03
31.8125       	1.374851e-03
31.875        	1.364713e-03
31.9375       	1.354492e-03
32            	1.344343e-03
32.0625       	1.334350e-03
32.125        	1.324229e-03
32.1875       	1.314405e-03
32.25         	1.304463e-03
32.3125       	1.294782e-03
32.375        	1.285082e-03
32.4375       	1.275495e-03
32.5          	1.265863e-03
32.5625       	1.256308e-03
32.625        	1.246774e-03
32.6875       	1.237491e-03
32.75         	1.228077e-03
32.8125       	1.218789e-03
32.875        	1.209615e-03
32.9375       	1.200491e-03
33            	1.191294e-03
33.0625       	1.182330e-03
33.125        	1.173298e-03
33.1875       	1.164322e-03
33.25         	1.155380e-03
33.3125       	1.146643e-03
33.375        	1.137879e-03
33.4375       	1.129100e-03
33.5          	1.120314e-03
33.5625       	1.111748e-03
33.625        	1.103176e-03
33.6875       	1.094707e-03
33.75         	1.086253e-03
33.8125       	1.077740e-03
33.875        	1.069193e-03
33.9375       	1.060797e-03
34            	1.052532e-03
34.0625       	1.044220e-03
34.125        	1.035996e-03
34.1875       	1.027955e-03
34.25         	1.019800e-03
34.3125       	1.011740e-03
34.375        	1.003690e-03
34.4375       	9.956413e-04
34.5          	9.877456e-04
34.5625       	9.798065e-04
34.625        	9.718054e-04
34.6875       	9.638494e-04
34.75         	9.560481e-04
34.8125       	9.482784e-04
34.875        	9.404713e-04
34.9375       	9.326880e-04
35            	9.251638e-04
35.0625       	9.177651e-04
35.125        	9.102574e-04
35.1875       	9.028643e-04
35.25         	8.954517e-04
35.3125       	8.880139e-04
35.375        	8.805501e-04
35.4375       	8.731750e-04
35.5          	8.657976e-04
35.5625       	8.585908e-04
35.625        	8.514328e-04
35.6875       	8.442178e-04
35.75         	8.370017e-04
35.8125       	8.298429e-04
35.875        	8.227462e-04
35.9375       	8.157439e-04
36            	8.087633e-04
36.0625       	8.017997e-04
36.125        	7.949553e-04
36.1875       	7.881341e-04
36.25         	7.813879e-04
36.3125       	7.748277e-04
36.375        	7.682489e-04
36.4375       	7.618412e-04
36.5          	7.554230e-04
36.5625       	7.489604e-04
36.625        	7.425680e-04
36.6875       	7.363108e-04
36.75         	7.300888e-04
36.8125       	7.238471e-04
36.875        	7.176594e-04
36.9375       	7.115079e-04
37            	7.054866e-04
37.0625       	6.993928e-04
37.125        	6.933687e-04
37.1875       	6.874637e-04
37.25         	6.816002e-04
37.3125       	6.758298e-04
37.375        	6.699692e-04
37.4375       	6.641763e-04
37.5          	6.583211e-04
37.5625       	6.525076e-04
37.625        	6.467788e-04
37.6875       	6.410852e-04
37.75         	6.353790e-04
37.8125       	6.297751e-04
37.875        	6.241420e-04
37.9375       	6.186151e-04
38            	6.131581e-04
38.0625       	6.077620e-04
38.125        	6.023216e-04
38.1875       	5.969504e-04
38.25         	5.916316e-04
38.3125       	5.863693e-04
38.375        	5.811107e-04
38.4375       	5.758937e-04
38.5          	5.707410e-04
38.5625       	5.656518e-04
38.625        	5.605399e-04
38.6875       	5.554749e-04
38.75         	5.504331e-04
38.8125       	5.454279e-04
38.875        	5.404510e-04
38.9375       	5.355789e-04
39            	5.306918e-04
39.0625       	5.258017e-04
39.125        	5.209363e-04
39.1875       	5.160588e-04
39.25         	5.111741e-04
39.3125       	5.064057e-04
39.375        	5.016904e-04
39.4375       	4.969376e-04
39.5          	4.923160e-04
39.5625       	4.877373e-04
39.625        	4.831525e-04
39.6875       	4.785971e-04
39.75         	4.740633e-04
39.8125       	4.696125e-04
39.875        	4.652204e-04
39.9375       	4.609054e-04
40            	4.566230e-04
40.0625       	4.523685e-04
40.125        	4.481238e-04
40.1875       	4.439926e-04
40.25         	4.399432e-04
40.3125       	4.358584e-04
40.375        	4.317777e-04
40.4375       	4.277186e-04
40.5          	4.237425e-04
40.5625       	4.197990e-04
40.625        	4.158574e-04
40.6875       	4.119288e-04
40.75         	4.080475e-04
40.8125       	4.042099e-04
40.875        	4.003438e-04
40.9375       	3.965773e-04
41            	3.927947e-04
41.0625       	3.890867e-04
41.125        	3.853841e-04
41.1875       	3.817023e-04
41.25         	3.780818e-04
41.3125       	3.744884e-04
41.375        	3.708932e-04
41.4375       	3.673463e-04
41.5          	3.638358e-04
41.5625       	3.603140e-04
41.625        	3.568224e-04
41.6875       	3.533726e-04
41.75         	3.499316e-04
41.8125       	3.465404e-04
41.875        	3.431751e-04
41.9375       	3.398576e-04
42            	3.365306e-04
42.0625       	3.332461e-04
42.125        	3.299871e-04
42.1875       	3.266930e-04
42.25         	3.233924e-04
42.3125       	3.201574e-04
42.375        	3.169232e-04
42.4375       	3.137406e-04
42.5          	3.105944e-04
42.5625       	3.074541e-04
42.625        	3.043445e-04
42.6875       	3.012549e-04
42.75         	2.982341e-04
42.8125       	2.952409e-04
42.875        	2.922472e-04
42.9375       	2.893122e-04
43            	2.864603e-04
43.0625       	2.836353e-04
43.125        	2.808388e-04
43.1875       	2.780721e-04
43.25         	2.753053e-04
43.3125       	2.725771e-04
43.375        	2.698579e-04
43.4375       	2.672071e-04
43.5          	2.645703e-04
43.5625       	2.620064e-04
43.625        	2.594846e-04
43.6875       	2.569704e-04
43.75         	2.545024e-04
43.8125       	2.520374e-04
43.875        	2.496253e-04
43.9375       	2.471837e-04
44            	2.448164e-04
44.0625       	2.424732e-04
44.125        	2.401635e-04
44.1875       	2.378703e-04
44.25         	2.355918e-04
44.3125       	2.333312e-04
44.375        	2.311341e-04
44.4375       	2.289363e-04
44.5          	2.267774e-04
44.5625       	2.245936e-04
44.625        	2.224636e-04
44.6875       	2.203491e-04
44.75         	2.182829e-04
44.8125       	2.161997e-04
44.875        	2.141429e-04
44.9375       	2.121152e-04
45            	2.101198e-04
45.0625       	2.081576e-04
45.125        	2.061888e-04
45.1875       	2.042794e-04
45.25         	2.023540e-04
45.3125       	2.004567e-04
45.375        	1.985832e-04
45.4375       	1.967169e-04
45.5          	1.948637e-04
45.5625       	1.930341e-04
45.625        	1.912164e-04
45.6875       	1.894018e-04
45.75         	1.876450e-04
45.8125       	1.858910e-04
45.875        	1.841804e-04
45.9375       	1.824786e-04
46            	1.808084e-04
46.0625       	1.791299e-04
46.125        	1.774683e-04
46.1875       	1.758326e-04
46.25         	1.741839e-04
46.3125       	1.725637e-04
46.375        	1.709825e-04
46.4375       	1.694002e-04
46.5          	1.678319e-04
46.5625       	1.662971e-04
46.625        	1.647740e-04
46.6875       	1.632533e-04
46.75         	1.617836e-04
46.8125       	1.602960e-04
46.875        	1.588265e-04
46.9375       	1.573672e-04
47            	1.559190e-04
47.0625       	1.545150e-04
47.125        	1.531079e-04
47.1875       	1.517069e-04
47.25         	1.503062e-04
47.3125       	1.489386e-04
47.375        	1.475719e-04
47.4375       	1.462282e-04
47.5          	1.449228e-04
47.5625       	1.436169e-04
47.625        	1.423371e-04
47.6875       	1.410588e-04
47.75         	1.397891e-04
47.8125       	1.385291e-04
47.875        	1.372913e-04
47.9375       	1.360746e-04
48            	1.348661e-04
48.0625       	1.336836e-04
48.125        	1.325074e-04
48.1875       	1.313271e-04
48.25         	1.301739e-04
48.3125       	1.290321e-04
48.375        	1.278880e-04
48.4375       	1.267656e-04
48.5          	1.256396e-04
48.5625       	1.245335e-04
48.625        	1.234459e-04
48.6875       	1.223582e-04
48.75         	1.212777e-04
48.8125       	1.202181e-04
48.875        	1.191700e-04
48.9375       	1.181276e-04
49            	1.171021e-04
49.0625       	1.160931e-04
49.125        	1.150833e-04
49.1875       	1.140789e-04
49.25         	1.130786e-04
49.3125       	1.121034e-04
49.375        	1.111355e-04
49.4375       	1.101689e-04
49.5          	1.092034e-04
49.5625       	1.082533e-04
49.625        	1.072975e-04
49.6875       	1.063652e-04
49.75         	1.054415e-04
49.8125       	1.045240e-04
49.875        	1.036115e-04
49.9375       	1.027067e-04
50            	1.018147e-04
50.0625       	1.009304e-04
50.125        	1.000448e-04
50.1875       	9.918304e-05
50.25         	9.832125e-05
50.3125       	9.746577e-05
50.375        	9.662331e-05
50.4375       	9.578474e-05
50.5          	9.494999e-05
50.5625       	9.414018e-05
50.625        	9.333228e-05
50.6875       	9.252718e-05
50.75         	9.171186e-05
50.8125       	9.090929e-05
50.875        	9.011660e-05
50.9375       	8.933784e-05
51            	8.856335e-05
51.0625       	8.778916e-05
51.125        	8.703888e-05
51.1875       	8.629594e-05
51.25         	8.556104e-05
51.3125       	8.481458e-05
51.375        	8.406943e-05
51.4375       	8.333668e-05
51.5          	8.259831e-05
51.5625       	8.187679e-05
51.625        	8.117069e-05
51.6875       	8.046454e-05
51.75         	7.976571e-05
51.8125       	7.907276e-05
51.875        	7.838147e-05
51.9375       	7.769375e-05
52            	7.702156e-05
52.0625       	7.633936e-05
52.125        	7.567287e-05
52.1875       	7.501392e-05
52.25         	7.435488e-05
52.3125       	7.370100e-05
52.375        	7.305303e-05
52.4375       	7.241327e-05
52.5          	7.176662e-05
52.5625       	7.114139e-05
52.625        	7.051344e-05
52.6875       	6.989098e-05
52.75         	6.927876e-05
52.8125       	6.867348e-05
52.875        	6.806770e-05
52.9375       	6.746205e-05
53            	6.686648e-05
53.0625       	6.627561e-05
53.125        	6.568708e-05
53.1875       	6.510471e-05
53.25         	6.452401e-05
53.3125       	6.395192e-05
53.375        	6.338345e-05
53.4375       	6.281905e-05
53.5          	6.226098e-05
53.5625       	6.170050e-05
53.625        	6.114296e-05
53.6875       	6.059317e-05
53.75         	6.004810e-05
53.8125       	5.950964e-05
53.875        	5.897286e-05
53.9375       	5.843944e-05
54            	5.790598e-05
54.0625       	5.738824e-05
54.125        	5.686669e-05
54.1875       	5.635050e-05
54.25         	5.583898e-05
54.3125       	5.533324e-05
54.375        	5.482151e-05
54.4375       	5.431275e-05
54.5          	5.381029e-05
54.5625       	5.331250e-05
54.625        	5.282068e-05
54.6875       	5.233366e-05
54.75         	5.185296e-05
54.8125       	5.136981e-05
54.875        	5.089346e-05
54.9375       	5.041719e-05
55            	4.995066e-05
55.0625       	4.949130e-05
55.125        	4.903183e-05
55.1875       	4.857581e-05
55.25         	4.812873e-05
55.3125       	4.767930e-05
55.375        	4.723157e-05
55.4375       	4.678715e-05
55.5          	4.634380e-05
55.5625       	4.590280e-05
55.625        	4.546783e-05
55.6875       	4.503591e-05
55.75         	4.460994e-05
55.8125       	4.418644e-05
55.875        	4.376683e-05
55.9375       	4.335468e-05
56            	4.293861e-05
56.0625       	4.252544e-05
56.125        	4.211695e-05
56.1875       	4.171047e-05
56.25         	4.130871e-05
56.3125       	4.090898e-05
56.375        	4.051211e-05
56.4375       	4.012186e-05
56.5          	3.973697e-05
56.5625       	3.935227e-05
56.625        	3.896954e-05
56.6875       	3.859019e-05
56.75         	3.821506e-05
56.8125       	3.784110e-05
56.875        	3.747115e-05
56.9375       	3.710299e-05
57            	3.673452e-05
57.0625       	3.636821e-05
57.125        	3.600814e-05
57.1875       	3.565250e-05
57.25         	3.529812e-05
57.3125       	3.494981e-05
57.375        	3.460134e-05
57.4375       	3.425415e-05
57.5          	3.391164e-05
57.5625       	3.357071e-05
57.625        	3.323310e-05
57.6875       	3.290090e-05
57.75         	3.256878e-05
57.8125       	3.224195e-05
57.875        	3.191457e-05
57.9375       	3.159280e-05
58            	3.127038e-05
58.0625       	3.095419e-05
58.125        	3.063695e-05
58.1875       	3.032446e-05
58.25         	3.001001e-05
58.3125       	2.970493e-05
58.375        	2.940214e-05
58.4375       	2.909520e-05
58.5          	2.879270e-05
58.5625       	2.849493e-05
58.625        	2.819753e-05
58.6875       	2.790437e-05
58.75         	2.761343e-05
58.8125       	2.732930e-05
58.875        	2.704736e-05
58.9375       	2.676505e-05
59            	2.648503e-05
59.0625       	2.620659e-05
59.125        	2.593446e-05
59.1875       	2.566100e-05
59.25         	2.538716e-05
59.3125       	2.511647e-05
59.375        	2.484599e-05
59.4375       	2.457912e-05
59.5          	2.431492e-05
59.5625       	2.405514e-05
59.625        	2.379943e-05
59.6875       	2.354453e-05
59.75         	2.329199e-05
59.8125       	2.304393e-05
59.875        	2.279502e-05
59.9375       	2.255012e-05
60            	2.230457e-05
60.0625       	2.206255e-05
60.125        	2.182212e-05
60.1875       	2.158516e-05
60.25         	2.134890e-05
60.3125       	2.111405e-05
60.375        	2.088111e-05
60.4375       	2.065172e-05
60.5          	2.042286e-05
60.5625       	2.019767e-05
60.625        	1.997517e-05
60.6875       	1.975503e-05
60.75         	1.953308e-05
60.8125       	1.931374e-05
60.875        	1.909510e-05
60.9375       	1.888149e-05
61            	1.866844e-05
61.0625       	1.845755e-05
61.125        	1.824884e-05
61.1875       	1.803991e-05
61.25         	1.783561e-05
61.3125       	1.763253e-05
61.375        	1.743102e-05
61.4375       	1.722976e-05
61.5          	1.703291e-05
61.5625       	1.683675e-05
61.625        	1.664049e-05
61.6875       	1.644865e-05
61.75         	1.625577e-05
61.8125       	1.606793e-05
61.875        	1.587962e-05
61.9375       	1.569153e-05
62            	1.550467e-05
62.0625       	1.532221e-05
62.125        	1.514264e-05
62.1875       	1.496194e-05
62.25         	1.478497e-05
62.3125       	1.460980e-05
62.375        	1.443683e-05
62.4375       	1.426318e-05
62.5          	1.409114e-05
62.5625       	1.392098e-05
62.625        	1.375325e-05
62.6875       	1.358485e-05
62.75         	1.341944e-05
62.8125       	1.325565e-05
62.875        	1.309193e-05
62.9375       	1.293049e-05
63            	1.277270e-05
63.0625       	1.261483e-05
63.125        	1.245891e-05