#        Time      outlet
     1.2e-06           0
    2.64e-06           0
   4.368e-06           0
  6.4416e-06           0
  8.9299e-06           0
  1.1916e-05           0
  1.5499e-05           0
  1.9799e-05           0
  2.4959e-05           0
   3.115e-05           0
   3.858e-05           0
  4.7497e-05           0
  5.8196e-05           0
  7.1035e-05           0
  8.6442e-05           0
  0.00010493           0
  0.00012712           0
  0.00015374           0
  0.00018569           0
  0.00022403           0
  0.00027003           0
  0.00032524           0
  0.00039148           0
  0.00047098           0
  0.00056638           0
  0.00068085           0
  0.00081822           0
  0.00098306           0
   0.0011809           0
   0.0014182           0
   0.0017031           0
   0.0020449           0
   0.0024551           0
   0.0029473           0
    0.003538           0
   0.0042468           0
   0.0050974           0
   0.0061182           0
   0.0073431           0
   0.0088129           0
    0.010577           0
    0.012692           0
    0.015232           0
    0.018279           0
    0.021934 2.5397e-318
     0.02632-5.3796e-292
    0.031583-1.0865e-266
    0.037896 1.9613e-240
    0.045472 2.3589e-216
    0.054563  1.015e-193
     0.06548 1.9258e-172
    0.078569 1.5151e-152
    0.094292 5.4649e-134
     0.11316  3.374e-117
     0.13578 6.4152e-102
     0.16281  1.1835e-88
     0.19402  1.4697e-78
      0.2291  3.5429e-71
     0.26726  6.7376e-66
     0.30453 -2.4395e-64
     0.34093 -2.3969e-62
     0.37704 -2.6854e-61
     0.41288 -1.9331e-60
     0.44844 -1.0797e-59
       0.484 -5.3993e-59
     0.51901 -2.2876e-58
     0.55374 -8.8161e-58
     0.58821 -3.1122e-57
     0.62241 -1.0124e-56
     0.65661 -3.0605e-56
     0.69081  -8.571e-56
     0.72501 -2.2062e-55
     0.75921 -5.1194e-55
     0.79314 -1.0446e-54
     0.82706 -1.6325e-54
     0.86127 -4.2355e-55
     0.89547  1.0359e-53
     0.92968  5.9195e-53
     0.96388   2.389e-52
     0.99808  8.3114e-52
      1.0323   2.648e-51
      1.0665  7.9434e-51
      1.1007  2.2796e-50
      1.1349   6.328e-50
      1.1691  1.7133e-49
      1.2033   4.557e-49
      1.2375  1.1979e-48
      1.2717  3.1289e-48
      1.3059  8.1545e-48
      1.3401   2.127e-47
      1.3743  5.5632e-47
      1.4085  1.4596e-46
      1.4427  3.8396e-46
      1.4769  1.0114e-45
      1.5112  2.6633e-45
      1.5454  6.9994e-45
      1.5796   1.833e-44
      1.6138  4.7767e-44
       1.648  1.2375e-43
      1.6822  3.1847e-43
      1.7164  8.1373e-43
      1.7506  2.0638e-42
      1.7848   5.195e-42
       1.819   1.298e-41
      1.8532  3.2192e-41
      1.8874   7.926e-41
      1.9216  1.9374e-40
      1.9558  4.7034e-40
        1.99  1.1343e-39
      2.0242  2.7187e-39
      2.0584  6.4774e-39
      2.0926  1.5347e-38
      2.1268  3.6169e-38
       2.161  8.4821e-38
      2.1952    1.98e-37
      2.2294  4.6019e-37
      2.2636  1.0653e-36
      2.2979  2.4568e-36
      2.3321  5.6465e-36
      2.3663  1.2936e-35
      2.4005  2.9544e-35
      2.4347  6.7284e-35
      2.4689  1.5281e-34
      2.5031  3.4608e-34
      2.5373  7.8169e-34
      2.5715  1.7608e-33
      2.6057  3.9549e-33
      2.6399  8.8578e-33
      2.6741   1.978e-32
      2.7083  4.4037e-32
      2.7425  9.7736e-32
      2.7767  2.1624e-31
      2.8109  4.7693e-31
      2.8451  1.0486e-30
      2.8793  2.2985e-30
      2.9135  5.0232e-30
      2.9477  1.0947e-29
      2.9819  2.3789e-29
      3.0161  5.1566e-29
      3.0503   1.115e-28
      3.0846  2.4056e-28
      3.1188  5.1787e-28
       3.153  1.1126e-27
      3.1872  2.3856e-27
      3.2214  5.1053e-27
      3.2556  1.0905e-26
      3.2898  2.3246e-26
       3.324  4.9455e-26
      3.3582  1.0499e-25
      3.3924  2.2239e-25
      3.4266  4.6993e-25
      3.4608  9.9049e-25
       3.495  2.0821e-24
      3.5292  4.3648e-24
      3.5634  9.1236e-24
      3.5976  1.9014e-23
      3.6318  3.9508e-23
       3.666  8.1842e-23
      3.7002  1.6902e-22
      3.7344  3.4798e-22
      3.7686  7.1423e-22
      3.8028  1.4614e-21
      3.8371  2.9809e-21
      3.8713  6.0607e-21
      3.9055  1.2282e-20
      3.9397  2.4802e-20
      3.9739  4.9904e-20
      4.0081  1.0003e-19
      4.0423  1.9966e-19
      4.0765  3.9679e-19
      4.1107  7.8487e-19
      4.1449  1.5449e-18
      4.1791   3.025e-18
      4.2133  5.8917e-18
      4.2475  1.1413e-17
      4.2817  2.1988e-17
      4.3159  4.2122e-17
      4.3501  8.0226e-17
      4.3843   1.519e-16
      4.4185  2.8598e-16
      4.4527  5.3471e-16
      4.4869  9.9215e-16
      4.5211  1.8274e-15
      4.5553   3.341e-15
      4.5895  6.0651e-15
      4.6238  1.0933e-14
       4.658  1.9567e-14
      4.6922  3.4765e-14
      4.7264  6.1317e-14
      4.7606  1.0735e-13
      4.7948  1.8656e-13
       4.829   3.218e-13
      4.8632  5.5095e-13
      4.8974  9.3627e-13
      4.9316  1.5793e-12
      4.9658  2.6441e-12
           5  4.3944e-12
      5.0342  7.2555e-12
      5.0685  1.1892e-11
      5.1027  1.9349e-11
       5.137  3.1255e-11
      5.1712  5.0125e-11
      5.2055  7.9817e-11
      5.2397   1.262e-10
       5.274  1.9814e-10
      5.3082  3.0892e-10
      5.3425  4.7832e-10
      5.3767  7.3553e-10
       5.411  1.1233e-09
      5.4452   1.704e-09
      5.4795  2.5675e-09
      5.5137  3.8426e-09
      5.5479  5.7129e-09
      5.5822  8.4375e-09
      5.6164   1.238e-08
      5.6507  1.8045e-08
      5.6849  2.6133e-08
      5.7192  3.7602e-08
      5.7534  5.3758e-08
      5.7877  7.6368e-08
      5.8219  1.0781e-07
      5.8562  1.5124e-07
      5.8904  2.1085e-07
      5.9247  2.9217e-07
      5.9589  4.0241e-07
      5.9932  5.5092e-07
      6.0274  7.4979e-07
      6.0616  1.0145e-06
      6.0959  1.3646e-06
      6.1301  1.8251e-06
      6.1644  2.4271e-06
      6.1986  3.2094e-06
      6.2329  4.2202e-06
      6.2671  5.5186e-06
      6.3014  7.1768e-06
      6.3356  9.2824e-06
      6.3699  1.1941e-05
      6.4041  1.5278e-05
      6.4384  1.9444e-05
      6.4726  2.4616e-05
      6.5068  3.0999e-05
      6.5411  3.8835e-05
      6.5753  4.8402e-05
      6.6096  6.0017e-05
      6.6438  7.4042e-05
      6.6781  9.0888e-05
      6.7123  0.00011101
      6.7466  0.00013493
      6.7808  0.00016319
      6.8151  0.00019644
      6.8493  0.00023532
      6.8836  0.00028057
      6.9178  0.00033297
      6.9521  0.00039332
      6.9863   0.0004625
      7.0205  0.00054138
      7.0548   0.0006309
       7.089  0.00073198
      7.1233  0.00084554
      7.1575  0.00097252
      7.1918   0.0011138
       7.226   0.0012703
      7.2603   0.0014428
      7.2945    0.001632
      7.3288   0.0018386
       7.363   0.0020631
      7.3973    0.002306
      7.4315   0.0025675
      7.4658   0.0028478
         7.5   0.0031469
      7.5342   0.0034645
      7.5685   0.0038005
      7.6027   0.0041542
       7.637   0.0045249
      7.6712   0.0049118
      7.7055   0.0053138
      7.7397   0.0057299
       7.774   0.0061586
      7.8082   0.0065985
      7.8425   0.0070481
      7.8767   0.0075057
       7.911   0.0079696
      7.9452   0.0084379
      7.9795    0.008909
      8.0137   0.0093807
      8.0479   0.0098514
      8.0822    0.010319
      8.1164    0.010782
      8.1507    0.011239
      8.1849    0.011687
      8.2192    0.012126
      8.2534    0.012554
      8.2877    0.012969
      8.3219     0.01337
      8.3562    0.013757
      8.3904    0.014127
      8.4247     0.01448
      8.4589    0.014816
      8.4932    0.015133
      8.5274    0.015431
      8.5616    0.015711
      8.5959    0.015971
      8.6301    0.016212
      8.6644    0.016433
      8.6986    0.016637
      8.7329    0.016821
      8.7671    0.016988
      8.8014    0.017138
      8.8356    0.017271
      8.8699    0.017389
      8.9041    0.017493
      8.9384    0.017584
      8.9726    0.017664
      9.0068    0.017734
      9.0411    0.017795
      9.0753    0.017848
      9.1096    0.017893
      9.1438    0.017932
      9.1781    0.017967
      9.2123    0.017998
      9.2466    0.018025
      9.2808    0.018049
      9.3151    0.018071
      9.3493     0.01809
      9.3836    0.018107
      9.4178    0.018125
      9.4521    0.018142
      9.4863     0.01816
      9.5205    0.018177
      9.5548    0.018195
       9.589    0.018213
      9.6233    0.018231
      9.6575     0.01825
      9.6918     0.01827
       9.726    0.018292
      9.7603    0.018314
      9.7945    0.018338
      9.8288    0.018363
       9.863    0.018389
      9.8973    0.018415
      9.9315    0.018441
      9.9658    0.018468
          10    0.018496
      10.034    0.018524
      10.068    0.018553
      10.103    0.018582
      10.137    0.018612
      10.171    0.018642
      10.205    0.018671
       10.24    0.018701
      10.274     0.01873
      10.308    0.018758
      10.342    0.018786
      10.377    0.018813
      10.411    0.018839
      10.445    0.018864
      10.479    0.018887
      10.514    0.018908
      10.548    0.018928
      10.582    0.018946
      10.616    0.018961
      10.651    0.018975
      10.685    0.018985
      10.719    0.018993
      10.753    0.018998
      10.788    0.018999
      10.822    0.018997
      10.856    0.018992
       10.89    0.018983
      10.925    0.018971
      10.959    0.018954
      10.993    0.018934
      11.027     0.01891
      11.062    0.018881
      11.096    0.018848
       11.13    0.018811
      11.164    0.018769
      11.199    0.018724
      11.233    0.018674
      11.267    0.018621
      11.301    0.018563
      11.336    0.018502
       11.37    0.018437
      11.404    0.018369
      11.438    0.018296
      11.473    0.018221
      11.507    0.018142
      11.541    0.018059
      11.575    0.017974
       11.61    0.017886
      11.644    0.017794
      11.678      0.0177
      11.712    0.017603
      11.747    0.017503
      11.781      0.0174
      11.815    0.017294
      11.849    0.017185
      11.884    0.017073
      11.918    0.016958
      11.952    0.016841
      11.986    0.016721
      12.021    0.016598
      12.055    0.016474
      12.089    0.016347
      12.123    0.016218
      12.158    0.016087
      12.192    0.015955
      12.226     0.01582
       12.26    0.015684
      12.295    0.015547
      12.329    0.015409
      12.363    0.015269
      12.397    0.015128
      12.432    0.014986
      12.466    0.014843
        12.5    0.014698
      12.534    0.014553
      12.568    0.014407
      12.603     0.01426
      12.637    0.014113
      12.671    0.013965
      12.705    0.013817
       12.74    0.013668
      12.774    0.013519
      12.808     0.01337
      12.842     0.01322
      12.877    0.013071
      12.911    0.012923
      12.945    0.012774
      12.979    0.012626
      13.014    0.012478
      13.048    0.012331
      13.082    0.012184
      13.116    0.012038
      13.151    0.011893
      13.185    0.011749
      13.219    0.011605
      13.253    0.011462
      13.288    0.011321
      13.322     0.01118
      13.356     0.01104
       13.39    0.010902
      13.425    0.010765
      13.459    0.010629
      13.493    0.010495
      13.527    0.010362
      13.562    0.010231
      13.596    0.010101
       13.63   0.0099719
      13.664   0.0098446
      13.699   0.0097185
      13.733   0.0095936
      13.767   0.0094699
      13.801   0.0093474
      13.836   0.0092261
       13.87   0.0091062
      13.904   0.0089878
      13.938   0.0088709
      13.973   0.0087558
      14.007   0.0086422
      14.041   0.0085305
      14.075   0.0084208
       14.11    0.008313
      14.144   0.0082073
      14.178   0.0081036
      14.212   0.0080021
      14.247    0.007903
      14.281   0.0078064
      14.315   0.0077122
      14.349   0.0076204
      14.384    0.007531
      14.418   0.0074439
      14.452   0.0073591
      14.486   0.0072766
      14.521   0.0071964
      14.555   0.0071186
      14.589   0.0070431
      14.623   0.0069696
      14.658   0.0068984
      14.692   0.0068292
      14.726   0.0067618
       14.76   0.0066961
      14.795   0.0066319
      14.829   0.0065689
      14.863   0.0065072
      14.897   0.0064467
      14.932   0.0063873
      14.966   0.0063289
          15   0.0062715
      15.034    0.006215
      15.068   0.0061594
      15.103   0.0061047
      15.137   0.0060508
      15.171   0.0059978
      15.205   0.0059457
       15.24   0.0058944
      15.274   0.0058439
      15.308   0.0057943
      15.342   0.0057455
      15.377   0.0056975
      15.411   0.0056503
      15.445   0.0056037
      15.479    0.005558
      15.514    0.005513
      15.548   0.0054688
      15.582   0.0054253
      15.616   0.0053825
      15.651   0.0053404
      15.685    0.005299
      15.719   0.0052583
      15.753   0.0052182
      15.788   0.0051789
      15.822   0.0051401
      15.856   0.0051021
       15.89   0.0050647
      15.925   0.0050279
      15.959   0.0049917
      15.993   0.0049561
      16.027   0.0049209
      16.062   0.0048862
      16.096   0.0048519
       16.13    0.004818
      16.164   0.0047846
      16.199   0.0047515
      16.233   0.0047189
      16.267   0.0046867
      16.301   0.0046548
      16.336   0.0046234
       16.37   0.0045924
      16.404   0.0045617
      16.438   0.0045314
      16.473   0.0045015
      16.507    0.004472
      16.541   0.0044428
      16.575    0.004414
       16.61   0.0043855
      16.644   0.0043572
      16.678   0.0043292
      16.712   0.0043014
      16.747   0.0042737
      16.781   0.0042462
      16.815   0.0042189
      16.849   0.0041916
      16.884   0.0041646
      16.918   0.0041376
      16.952   0.0041108
      16.986   0.0040842
      17.021   0.0040577
      17.055   0.0040313
      17.089   0.0040051
      17.123   0.0039791
      17.158   0.0039533
      17.192   0.0039276
      17.226   0.0039021
       17.26   0.0038768
      17.295   0.0038516
      17.329   0.0038267
      17.363   0.0038019
      17.397   0.0037774
      17.432    0.003753
      17.466   0.0037288
        17.5   0.0037047
      17.534   0.0036806
      17.568   0.0036567
      17.603   0.0036329
      17.637   0.0036091
      17.671   0.0035853
      17.705   0.0035617
       17.74   0.0035381
      17.774   0.0035145
      17.808   0.0034911
      17.842   0.0034676
      17.877   0.0034442
      17.911   0.0034209
      17.945   0.0033977
      17.979   0.0033745
      18.014   0.0033513
      18.048   0.0033282
      18.082   0.0033052
      18.116   0.0032822
      18.151   0.0032593
      18.185   0.0032364
      18.219   0.0032135
      18.253   0.0031906
      18.288   0.0031677
      18.322   0.0031449
      18.356   0.0031222
       18.39   0.0030993
      18.425   0.0030765
      18.459   0.0030538
      18.493    0.003031
      18.527   0.0030083
      18.562   0.0029856
      18.596   0.0029629
       18.63   0.0029401
      18.664   0.0029174
      18.699   0.0028947
      18.733   0.0028719
      18.767   0.0028492
      18.801   0.0028266
      18.836   0.0028039
       18.87   0.0027813
      18.904   0.0027588
      18.938   0.0027364
      18.973   0.0027141
      19.007   0.0026919
      19.041   0.0026697
      19.075   0.0026476
       19.11   0.0026256
      19.144   0.0026036
      19.178   0.0025818
      19.212     0.00256
      19.247   0.0025384
      19.281    0.002517
      19.315   0.0024957
      19.349   0.0024746
      19.384   0.0024537
      19.418    0.002433
      19.452   0.0024125
      19.486   0.0023921
      19.521    0.002372
      19.555   0.0023521
      19.589   0.0023324
      19.623   0.0023129
      19.658   0.0022936
      19.692   0.0022745
      19.726   0.0022555
       19.76   0.0022368
      19.795   0.0022182
      19.829   0.0021997
      19.863   0.0021815
      19.897   0.0021634
      19.932   0.0021455
      19.966   0.0021279
          20   0.0021104
      20.034   0.0020931
      20.068   0.0020761
      20.103   0.0020592
      20.137   0.0020427
      20.171   0.0020263
      20.205   0.0020102
       20.24   0.0019943
      20.274   0.0019787
      20.308   0.0019632
      20.342    0.001948
      20.377    0.001933
      20.411   0.0019182
      20.445   0.0019037
      20.479   0.0018893
      20.514    0.001875
      20.548   0.0018607
      20.582   0.0018466
      20.616   0.0018326
      20.651   0.0018186
      20.685   0.0018048
      20.719   0.0017911
      20.753   0.0017776
      20.788   0.0017642
      20.822   0.0017509
      20.856   0.0017378
       20.89   0.0017249
      20.925   0.0017122
      20.959   0.0016996
      20.993   0.0016872
      21.027    0.001675
      21.062    0.001663
      21.096   0.0016511
       21.13   0.0016395
      21.164   0.0016279
      21.199   0.0016166
      21.233   0.0016054
      21.267   0.0015943
      21.301   0.0015834
      21.336   0.0015727
       21.37    0.001562
      21.404   0.0015515
      21.438   0.0015412
      21.473   0.0015309
      21.507   0.0015207
      21.541   0.0015106
      21.575   0.0015006
       21.61   0.0014907
      21.644   0.0014809
      21.678   0.0014712
      21.712   0.0014616
      21.747   0.0014521
      21.781   0.0014428
      21.815   0.0014334
      21.849   0.0014242
      21.884    0.001415
      21.918   0.0014058
      21.952   0.0013968
      21.986   0.0013878
      22.021   0.0013789
      22.055   0.0013702
      22.089   0.0013615
      22.123   0.0013529
      22.158   0.0013444
      22.192   0.0013361
      22.226   0.0013278
       22.26   0.0013196
      22.295   0.0013116
      22.329   0.0013037
      22.363   0.0012958
      22.397   0.0012881
      22.432   0.0012804
      22.466   0.0012729
        22.5   0.0012654
      22.534    0.001258
      22.568   0.0012507
      22.603   0.0012434
      22.637   0.0012362
      22.671   0.0012291
      22.705    0.001222
       22.74   0.0012149
      22.774   0.0012079
      22.808    0.001201
      22.842    0.001194
      22.877   0.0011871
      22.911   0.0011803
      22.945   0.0011734
      22.979   0.0011666
      23.014   0.0011599
      23.048   0.0011532
      23.082   0.0011466
      23.116   0.0011401
      23.151   0.0011336
      23.185   0.0011272
      23.219   0.0011209
      23.253   0.0011146
      23.288   0.0011085
      23.322   0.0011023
      23.356   0.0010963
       23.39   0.0010904
      23.425   0.0010845
      23.459   0.0010787
      23.493    0.001073
      23.527   0.0010674
      23.562   0.0010618
      23.596   0.0010564
       23.63    0.001051
      23.664   0.0010457
      23.699   0.0010405
      23.733   0.0010353
      23.767   0.0010302
      23.801   0.0010252
      23.836   0.0010202
       23.87   0.0010153
      23.904   0.0010105
      23.938   0.0010057
      23.973   0.0010009
      24.007  0.00099623
      24.041  0.00099159
      24.075  0.00098699
       24.11  0.00098243
      24.144  0.00097792
      24.178  0.00097345
      24.212    0.000969
      24.247  0.00096457
      24.281  0.00096016
      24.315  0.00095576
      24.349  0.00095139
      24.384  0.00094704
      24.418  0.00094272
      24.452  0.00093843
      24.486  0.00093417
      24.521  0.00092994
      24.555  0.00092574
      24.589  0.00092157
      24.623  0.00091745
      24.658  0.00091336
      24.692  0.00090932
      24.726  0.00090531
       24.76  0.00090134
      24.795  0.00089741
      24.829  0.00089351
      24.863  0.00088965
      24.897  0.00088578
      24.932  0.00088192
      24.966  0.00087807
          25  0.00087422
      25.034  0.00087039
      25.068  0.00086657
      25.103  0.00086278
      25.137    0.000859
      25.171  0.00085524
      25.205  0.00085151
       25.24  0.00084781
      25.274  0.00084413
      25.308  0.00084049
      25.342  0.00083687
      25.377  0.00083328
      25.411  0.00082972
      25.445  0.00082618
      25.479  0.00082266
      25.514  0.00081916
      25.548  0.00081567
      25.582  0.00081221
      25.616  0.00080877
      25.651  0.00080534
      25.685  0.00080193
      25.719  0.00079854
      25.753  0.00079517
      25.788  0.00079182
      25.822  0.00078849
      25.856  0.00078518
       25.89   0.0007819
      25.925  0.00077865
      25.959  0.00077542
      25.993  0.00077222
      26.027  0.00076905
      26.062  0.00076591
      26.096  0.00076279
       26.13  0.00075971
      26.164  0.00075666
      26.199  0.00075365
      26.233  0.00075067
      26.267  0.00074772
      26.301  0.00074481
      26.336  0.00074192
       26.37  0.00073905
      26.404  0.00073622
      26.438  0.00073341
      26.473  0.00073063
      26.507  0.00072788
      26.541  0.00072515
      26.575  0.00072245
       26.61  0.00071978
      26.644  0.00071713
      26.678   0.0007145
      26.712  0.00071189
      26.747  0.00070932
      26.781  0.00070676
      26.815  0.00070424
      26.849  0.00070174
      26.884  0.00069926
      26.918  0.00069681
      26.952  0.00069438
      26.986  0.00069198
      27.021  0.00068959
      27.055  0.00068722
      27.089  0.00068485
      27.123   0.0006825
      27.158  0.00068016
      27.192  0.00067782
      27.226  0.00067548
       27.26  0.00067313
      27.295  0.00067077
      27.329  0.00066841
      27.363  0.00066605
      27.397  0.00066369
      27.432  0.00066133
      27.466  0.00065897
        27.5  0.00065662
      27.534  0.00065427
      27.568  0.00065194
      27.603  0.00064961
      27.637  0.00064729
      27.671  0.00064499
      27.705   0.0006427
       27.74  0.00064042
      27.774  0.00063817
      27.808  0.00063593
      27.842  0.00063371
      27.877  0.00063151
      27.911  0.00062933
      27.945  0.00062716
      27.979  0.00062502
      28.014  0.00062289
      28.048  0.00062077
      28.082  0.00061867
      28.116  0.00061658
      28.151  0.00061449
      28.185  0.00061242
      28.219  0.00061035
      28.253  0.00060828
      28.288  0.00060621
      28.322  0.00060415
      28.356  0.00060208
       28.39  0.00060001
      28.425  0.00059795
      28.459  0.00059589
      28.493  0.00059384
      28.527   0.0005918
      28.562  0.00058976
      28.596  0.00058774
       28.63  0.00058572
      28.664  0.00058371
      28.699  0.00058171
      28.733  0.00057972
      28.767  0.00057774
      28.801  0.00057577
      28.836   0.0005738
       28.87  0.00057184
      28.904  0.00056988
      28.938  0.00056792
      28.973  0.00056597
      29.007  0.00056402
      29.041  0.00056207
      29.075  0.00056012
       29.11  0.00055818
      29.144  0.00055624
      29.178   0.0005543
      29.212  0.00055236
      29.247  0.00055042
      29.281  0.00054849
      29.315  0.00054656
      29.349  0.00054464
      29.384  0.00054272
      29.418  0.00054081
      29.452   0.0005389
      29.486  0.00053701
      29.521  0.00053512
      29.555  0.00053324
      29.589  0.00053138
      29.623  0.00052952
      29.658  0.00052768
      29.692  0.00052585
      29.726  0.00052403
       29.76  0.00052222
      29.795  0.00052042
      29.829  0.00051863
      29.863  0.00051686
      29.897   0.0005151
      29.932  0.00051334
      29.966   0.0005116
          30  0.00050986
      30.034  0.00050814
      30.068  0.00050641
      30.103   0.0005047
      30.137  0.00050299
      30.171  0.00050128
      30.205  0.00049957
       30.24  0.00049787
      30.274  0.00049617
      30.308  0.00049446
      30.342  0.00049275
      30.377  0.00049105
      30.411  0.00048933
      30.445  0.00048761
      30.479  0.00048589
      30.514  0.00048415
      30.548  0.00048241
      30.582  0.00048066
      30.616  0.00047889
      30.651  0.00047712
      30.685  0.00047533
      30.719  0.00047353
      30.753  0.00047172
      30.788   0.0004699
      30.822  0.00046808
      30.856  0.00046626
       30.89  0.00046444
      30.925  0.00046262
      30.959  0.00046081
      30.993    0.000459
      31.027   0.0004572
      31.062  0.00045541
      31.096  0.00045363
       31.13  0.00045185
      31.164   0.0004501
      31.199  0.00044835
      31.233  0.00044661
      31.267  0.00044489
      31.301  0.00044318
      31.336  0.00044148
       31.37  0.00043979
      31.404  0.00043811
      31.438  0.00043645
      31.473   0.0004348
      31.507  0.00043315
      31.541  0.00043152
      31.575   0.0004299
       31.61  0.00042829
      31.644  0.00042669
      31.678   0.0004251
      31.712  0.00042351
      31.747  0.00042194
      31.781  0.00042038
      31.815  0.00041882
      31.849  0.00041727
      31.884  0.00041573
      31.918  0.00041419
      31.952  0.00041266
      31.986  0.00041114
      32.021  0.00040962
      32.055  0.00040811
      32.089   0.0004066
      32.123  0.00040509
      32.158  0.00040359
      32.192  0.00040209
      32.226  0.00040059
       32.26  0.00039909
      32.295  0.00039758
      32.329  0.00039608
      32.363  0.00039458
      32.397  0.00039308
      32.432  0.00039158
      32.466  0.00039008
        32.5  0.00038858
      32.534  0.00038708
      32.568  0.00038559
      32.603   0.0003841
      32.637  0.00038261
      32.671  0.00038113
      32.705  0.00037965
       32.74  0.00037817
      32.774  0.00037669
      32.808  0.00037522
      32.842  0.00037376
      32.877   0.0003723
      32.911  0.00037084
      32.945  0.00036939
      32.979  0.00036794
      33.014   0.0003665
      33.048  0.00036506
      33.082  0.00036363
      33.116  0.00036221
      33.151  0.00036079
      33.185  0.00035937
      33.219  0.00035796
      33.253  0.00035656
      33.288  0.00035516
      33.322  0.00035377
      33.356  0.00035238
       33.39    0.000351
      33.425  0.00034962
      33.459  0.00034825
      33.493  0.00034689
      33.527  0.00034553
      33.562  0.00034418
      33.596  0.00034284
       33.63   0.0003415
      33.664  0.00034016
      33.699  0.00033884
      33.733  0.00033752
      33.767  0.00033621
      33.801   0.0003349
      33.836  0.00033361
       33.87  0.00033232
      33.904  0.00033103
      33.938  0.00032976
      33.973  0.00032849
      34.007  0.00032723
      34.041  0.00032597
      34.075  0.00032473
       34.11  0.00032349
      34.144  0.00032225
      34.178  0.00032102
      34.212   0.0003198
      34.247  0.00031858
      34.281  0.00031737
      34.315  0.00031617
      34.349  0.00031497
      34.384  0.00031377
      34.418  0.00031258
      34.452   0.0003114
      34.486  0.00031021
      34.521  0.00030904
      34.555  0.00030786
      34.589  0.00030669
      34.623  0.00030552
      34.658  0.00030436
      34.692   0.0003032
      34.726  0.00030204
       34.76  0.00030089
      34.795  0.00029973
      34.829  0.00029858
      34.863  0.00029744
      34.897   0.0002963
      34.932  0.00029516
      34.966  0.00029402
          35  0.00029289
      35.034  0.00029176
      35.068  0.00029064
      35.103  0.00028952
      35.137  0.00028841
      35.171  0.00028731
      35.205  0.00028621
       35.24  0.00028512
      35.274  0.00028403
      35.308  0.00028295
      35.342  0.00028188
      35.377  0.00028082
      35.411  0.00027976
      35.445  0.00027871
      35.479  0.00027767
      35.514  0.00027664
      35.548  0.00027561
      35.582   0.0002746
      35.616  0.00027358
      35.651  0.00027258
      35.685  0.00027158
      35.719  0.00027059
      35.753  0.00026961
      35.788  0.00026863
      35.822  0.00026766
      35.856   0.0002667
       35.89  0.00026574
      35.925  0.00026479
      35.959  0.00026385
      35.993  0.00026291
      36.027  0.00026198
      36.062  0.00026105
      36.096  0.00026012
       36.13  0.00025921
      36.164  0.00025829
      36.199  0.00025738
      36.233  0.00025648
      36.267  0.00025558
      36.301  0.00025468
      36.336  0.00025378
       36.37  0.00025289
      36.404  0.00025201
      36.438  0.00025112
      36.473  0.00025024
      36.507  0.00024936
      36.541  0.00024849
      36.575  0.00024761
       36.61  0.00024674
      36.644  0.00024586
      36.678  0.00024499
      36.712  0.00024412
      36.747  0.00024324
      36.781  0.00024237
      36.815  0.00024149
      36.849  0.00024062
      36.884  0.00023974
      36.918  0.00023887
      36.952  0.00023799
      36.986  0.00023712
      37.021  0.00023625
      37.055  0.00023537
      37.089   0.0002345
      37.123  0.00023362
      37.158  0.00023275
      37.192  0.00023188
      37.226  0.00023101
       37.26  0.00023015
      37.295  0.00022928
      37.329  0.00022843
      37.363  0.00022757
      37.397  0.00022672
      37.432  0.00022588
      37.466  0.00022503
        37.5   0.0002242
      37.534  0.00022337
      37.568  0.00022255
      37.603  0.00022173
      37.637  0.00022092
      37.671  0.00022011
      37.705  0.00021931
       37.74  0.00021852
      37.774  0.00021773
      37.808  0.00021695
      37.842  0.00021618
      37.877  0.00021541
      37.911  0.00021465
      37.945  0.00021389
      37.979  0.00021314
      38.014  0.00021239
      38.048  0.00021165
      38.082  0.00021092
      38.116  0.00021019
      38.151  0.00020947
      38.185  0.00020875
      38.219  0.00020804
      38.253  0.00020733
      38.288  0.00020663
      38.322  0.00020593
      38.356  0.00020524
       38.39  0.00020455
      38.425  0.00020386
      38.459  0.00020318
      38.493  0.00020251
      38.527  0.00020184
      38.562  0.00020117
      38.596  0.00020051
       38.63  0.00019985
      38.664  0.00019919
      38.699  0.00019854
      38.733  0.00019789
      38.767  0.00019725
      38.801  0.00019661
      38.836  0.00019597
       38.87  0.00019534
      38.904  0.00019471
      38.938  0.00019409
      38.973  0.00019347
      39.007  0.00019285
      39.041  0.00019224
      39.075  0.00019162
       39.11  0.00019102
      39.144  0.00019041
      39.178  0.00018981
      39.212  0.00018921
      39.247  0.00018861
      39.281  0.00018802