#         Time       outlet
      1.2e-06            0
     2.64e-06            0
    4.368e-06            0
   6.4416e-06            0
  8.92992e-06            0
  1.19159e-05            0
  1.54991e-05            0
  1.97989e-05            0
  2.49587e-05            0
  3.11504e-05            0
  3.85805e-05            0
  4.74965e-05            0
  5.81958e-05            0
   7.1035e-05            0
   8.6442e-05            0
   0.00010493            0
  0.000127116            0
   0.00015374            0
  0.000185688            0
  0.000224025            0
   0.00027003            0
  0.000325236            0
  0.000391483            0
   0.00047098            0
  0.000566376            0
   0.00068085            0
  0.000818221            0
  0.000983063            0
   0.00118087            0
   0.00141824            0
    0.0017031            0
   0.00204491            0
   0.00245508            0
    0.0029473            0
   0.00353797            0
   0.00424679            0
   0.00509742            0
   0.00611825            0
   0.00734314            0
   0.00881286            0
    0.0105765            0
    0.0126925            0
    0.0152319            0
    0.0182788            0
    0.0219337            0
    0.0263197            0
    0.0315829            0
     0.037896 1.87276e-298
    0.0454717 4.20636e-272
    0.0545626 1.34087e-247
    0.0654797 2.21364e-224
    0.0785686-1.40963e-200
     0.094292-1.03838e-179
      0.11316-4.16441e-157
     0.135784-5.36657e-136
     0.162808-3.55545e-117
     0.194015  5.66016e-98
     0.229096 -4.22541e-85
     0.267263 -2.21151e-76
     0.304529  5.44297e-72
     0.340928  1.84707e-69
     0.377044 -6.10796e-67
     0.412881  -1.4446e-65
     0.448718 -1.44793e-64
     0.484275 -6.31466e-64
     0.519281  1.43659e-63
     0.554015  4.64846e-62
      0.58848  4.33154e-61
     0.622678  2.79617e-60
     0.656876  1.47441e-59
     0.691073  6.55668e-59
     0.725271  2.51756e-58
     0.759469  8.26087e-58
     0.793393  2.12603e-57
     0.827318  3.92058e-57
      0.86152 -6.99673e-58
     0.895722 -5.17698e-56
     0.929924   -3.255e-55
     0.964127 -1.49107e-54
     0.998329  -5.8608e-54
      1.03253 -2.08973e-53
      1.06673 -6.94715e-53
      1.10094 -2.18914e-52
      1.13514 -6.62339e-52
      1.16934 -1.93643e-51
      1.20354 -5.50034e-51
      1.23775 -1.52251e-50
      1.27195 -4.11467e-50
      1.30615 -1.08351e-49
      1.34035 -2.76808e-49
      1.37455 -6.80677e-49
      1.40876 -1.58838e-48
      1.44296 -3.42179e-48
      1.47716 -6.38081e-48
      1.51136 -8.19798e-48
      1.54557  5.35209e-48
      1.57977  9.52848e-47
      1.61397  4.87301e-46
      1.64817  1.94948e-45
      1.68238  6.95357e-45
      1.71658  2.31307e-44
      1.75078  7.32814e-44
      1.78498  2.23713e-43
      1.81918  6.62895e-43
      1.85339  1.91602e-42
      1.88759  5.42149e-42
      1.92179  1.50588e-41
      1.95599  4.11495e-41
       1.9902  1.10819e-40
       2.0244  2.94572e-40
       2.0586  7.73829e-40
       2.0928  2.01118e-39
      2.12701  5.17629e-39
      2.16121  1.31973e-38
      2.19541  3.33738e-38
      2.22961  8.37561e-38
      2.26381  2.08718e-37
      2.29802  5.16723e-37
      2.33222  1.27144e-36
      2.36642   3.1105e-36
      2.40062  7.56832e-36
      2.43483  1.83196e-35
      2.46903   4.4124e-35
      2.50323  1.05769e-34
      2.53743  2.52363e-34
      2.57164  5.99415e-34
      2.60584  1.41742e-33
      2.64004  3.33708e-33
      2.67424  7.82254e-33
      2.70844  1.82582e-32
      2.74265  4.24331e-32
      2.77685   9.8198e-32
      2.81105  2.26289e-31
      2.84525  5.19287e-31
      2.87946  1.18674e-30
      2.91366  2.70108e-30
      2.94786  6.12331e-30
      2.98206  1.38273e-29
      3.01627  3.11052e-29
      3.05047  6.97125e-29
      3.08467  1.55671e-28
      3.11887   3.4638e-28
      3.15307  7.68023e-28
      3.18728  1.69701e-27
      3.22148  3.73671e-27
      3.25568  8.19946e-27
      3.28988   1.7929e-26
      3.32409  3.90643e-26
      3.35829  8.48064e-26
      3.39249   1.8343e-25
      3.42669   3.9525e-25
       3.4609  8.48409e-25
       3.4951  1.81404e-24
       3.5293  3.86348e-24
       3.5635  8.19585e-24
      3.59771  1.73177e-23
      3.63191  3.64479e-23
      3.66611    7.641e-23
      3.70031  1.59563e-22
      3.73451  3.31913e-22
      3.76872  6.87749e-22
      3.80292  1.41952e-21
      3.83712  2.91841e-21
      3.87132  5.97603e-21
      3.90553  1.21871e-20
      3.93973  2.47488e-20
      3.97393  5.00378e-20
      4.00813  1.00705e-19
      4.04234  2.01706e-19
      4.07654  4.01977e-19
      4.11074  7.96883e-19
      4.14494  1.57113e-18
      4.17914  3.08018e-18
      4.21335  6.00395e-18
      4.24755  1.16353e-17
      4.28175  2.24176e-17
      4.31595  4.29391e-17
      4.35016  8.17563e-17
      4.38436  1.54725e-16
      4.41856   2.9116e-16
      4.45276  5.43989e-16
      4.48697  1.00862e-15
      4.52117  1.85627e-15
      4.55537  3.39109e-15
      4.58957  6.15093e-15
      4.62377  1.10787e-14
      4.65798  1.98111e-14
      4.69218  3.51704e-14
      4.72638  6.19836e-14
      4.76058  1.08437e-13
      4.79479  1.88309e-13
      4.82899  3.24597e-13
      4.86319  5.55383e-13
      4.89739  9.43226e-13
       4.9316  1.59008e-12
       4.9658  2.66081e-12
            5  4.41989e-12
      5.03425  7.29429e-12
      5.06849  1.19502e-11
      5.10274  1.94363e-11
      5.13699  3.13849e-11
      5.17123  5.03172e-11
      5.20548   8.0098e-11
      5.23973  1.26607e-10
      5.27397  1.98724e-10
      5.30822  3.09756e-10
      5.34247    4.795e-10
      5.37671  7.37185e-10
      5.41096  1.12565e-09
      5.44521  1.70723e-09
      5.47945  2.57191e-09
       5.5137  3.84871e-09
      5.54795  5.72117e-09
      5.58219  8.44856e-09
      5.61644  1.23944e-08
      5.65068  1.80647e-08
      5.68493  2.61586e-08
      5.71918  3.76357e-08
      5.75342  5.38025e-08
      5.78767  7.64265e-08
      5.82192  1.07882e-07
      5.85616  1.51338e-07
      5.89041  2.10986e-07
      5.92466   2.9235e-07
       5.9589  4.02647e-07
      5.99315   5.5124e-07
       6.0274  7.50213e-07
      6.06164  1.01503e-06
      6.09589  1.36537e-06
      6.13014  1.82609e-06
      6.16438  2.42838e-06
      6.19863  3.21111e-06
      6.23288  4.22243e-06
      6.26712  5.52148e-06
      6.30137  7.18051e-06
      6.33562  9.28708e-06
      6.36986  1.19467e-05
      6.40411  1.52857e-05
      6.43836  1.94537e-05
       6.4726  2.46276e-05
      6.50685  3.10144e-05
       6.5411  3.88544e-05
      6.57534  4.84255e-05
      6.60959  6.00458e-05
      6.64384  7.40781e-05
      6.67808  9.09314e-05
      6.71233  0.000111065
      6.74658   0.00013499
      6.78082   0.00016327
      6.81507  0.000196525
      6.84932  0.000235426
      6.88356  0.000280699
      6.91781  0.000333116
      6.95205  0.000393495
       6.9863  0.000462698
      7.02055  0.000541619
      7.05479  0.000631171
      7.08904  0.000732283
      7.12329  0.000845889
      7.15753  0.000972915
      7.19178   0.00111426
      7.22603   0.00127079
      7.26027   0.00144333
      7.29452   0.00163259
      7.32877   0.00183924
      7.36301   0.00206382
      7.39726   0.00230677
      7.43151   0.00256834
      7.46575   0.00284869
          7.5   0.00314782
      7.53425   0.00346555
      7.56849   0.00380154
      7.60274   0.00415527
      7.63699   0.00452603
      7.67123   0.00491295
      7.70548   0.00531503
      7.73973    0.0057311
      7.77397   0.00615981
      7.80822   0.00659974
      7.84247   0.00704932
      7.87671   0.00750691
      7.91096   0.00797077
      7.94521    0.0084391
      7.97945   0.00891007
       8.0137   0.00938178
      8.04795    0.0098524
      8.08219    0.0103201
      8.11644    0.0107831
      8.15068    0.0112397
      8.18493    0.0116881
      8.21918    0.0121269
      8.25342    0.0125545
      8.28767    0.0129696
      8.32192    0.0133708
      8.35616     0.013757
      8.39041    0.0141272
      8.42466    0.0144804
       8.4589    0.0148158
      8.49315     0.015133
       8.5274    0.0154313
      8.56164    0.0157106
      8.59589    0.0159706
      8.63014    0.0162114
      8.66438    0.0164332
      8.69863    0.0166363
      8.73288    0.0168209
      8.76712    0.0169877
      8.80137    0.0171373
      8.83562    0.0172707
      8.86986    0.0173887
      8.90411    0.0174927
      8.93836    0.0175838
       8.9726    0.0176636
      9.00685    0.0177336
       9.0411    0.0177947
      9.07534    0.0178474
      9.10959    0.0178925
      9.14384    0.0179317
      9.17808    0.0179664
      9.21233    0.0179974
      9.24658    0.0180249
      9.28082    0.0180493
      9.31507    0.0180708
      9.34932    0.0180897
      9.38356    0.0181074
      9.41781    0.0181247
      9.45205    0.0181425
       9.4863    0.0181603
      9.52055    0.0181777
      9.55479    0.0181952
      9.58904    0.0182132
      9.62329    0.0182315
      9.65753    0.0182508
      9.69178     0.018271
      9.72603    0.0182924
      9.76027    0.0183149
      9.79452    0.0183388
      9.82877    0.0183638
      9.86301    0.0183896
      9.89726    0.0184156
      9.93151    0.0184421
      9.96575    0.0184692
           10    0.0184967
      10.0342    0.0185248
      10.0685    0.0185536
      10.1027     0.018583
       10.137    0.0186127
      10.1712    0.0186425
      10.2055    0.0186722
      10.2397    0.0187016
       10.274    0.0187307
      10.3082    0.0187594
      10.3425    0.0187873
      10.3767    0.0188142
       10.411    0.0188401
      10.4452    0.0188647
      10.4795    0.0188878
      10.5137    0.0189093
      10.5479     0.018929
      10.5822    0.0189467
      10.6164    0.0189622
      10.6507    0.0189754
      10.6849     0.018986
      10.7192    0.0189937
      10.7534    0.0189984
      10.7877    0.0189999
      10.8219    0.0189981
      10.8562    0.0189928
      10.8904    0.0189839
      10.9247    0.0189714
      10.9589     0.018955
      10.9932    0.0189347
      11.0274    0.0189101
      11.0616    0.0188813
      11.0959    0.0188482
      11.1301    0.0188109
      11.1644    0.0187694
      11.1986    0.0187238
      11.2329    0.0186743
      11.2671    0.0186208
      11.3014    0.0185636
      11.3356    0.0185024
      11.3699    0.0184373
      11.4041    0.0183686
      11.4384    0.0182962
      11.4726    0.0182205
      11.5068    0.0181414
      11.5411    0.0180593
      11.5753     0.017974
      11.6096    0.0178856
      11.6438    0.0177942
      11.6781    0.0176999
      11.7123    0.0176027
      11.7466    0.0175027
      11.7808    0.0173996
      11.8151    0.0172935
      11.8493    0.0171844
      11.8836    0.0170724
      11.9178    0.0169578
      11.9521    0.0168404
      11.9863    0.0167203
      12.0205    0.0165978
      12.0548    0.0164731
       12.089    0.0163461
      12.1233    0.0162173
      12.1575    0.0160865
      12.1918    0.0159539
       12.226    0.0158196
      12.2603    0.0156837
      12.2945    0.0155465
      12.3288    0.0154079
       12.363    0.0152682
      12.3973    0.0151274
      12.4315    0.0149853
      12.4658    0.0148421
         12.5    0.0146977
      12.5342    0.0145524
      12.5685    0.0144063
      12.6027    0.0142596
       12.637    0.0141123
      12.6712    0.0139644
      12.7055    0.0138161
      12.7397    0.0136674
       12.774    0.0135184
      12.8082    0.0133691
      12.8425    0.0132199
      12.8767    0.0130709
       12.911    0.0129221
      12.9452    0.0127737
      12.9795    0.0126256
      13.0137    0.0124779
      13.0479    0.0123307
      13.0822     0.012184
      13.1164     0.012038
      13.1507    0.0118928
      13.1849    0.0117484
      13.2192    0.0116048
      13.2534     0.011462
      13.2877    0.0113202
      13.3219    0.0111796
      13.3562      0.01104
      13.3904    0.0109017
      13.4247    0.0107647
      13.4589     0.010629
      13.4932    0.0104947
      13.5274    0.0103618
      13.5616    0.0102303
      13.5959    0.0101002
      13.6301   0.00997153
      13.6644   0.00984413
      13.6986   0.00971804
      13.7329   0.00959319
      13.7671    0.0094695
      13.8014   0.00934697
      13.8356   0.00922568
      13.8699   0.00910577
      13.9041   0.00898729
      13.9384   0.00887046
      13.9726    0.0087553
      14.0068   0.00864176
      14.0411   0.00853001
      14.0753   0.00842027
      14.1096    0.0083125
      14.1438   0.00820676
      14.1781   0.00810308
      14.2123   0.00800158
      14.2466    0.0079025
      14.2808   0.00780583
      14.3151   0.00771162
      14.3493   0.00761984
      14.3836   0.00753041
      14.4178    0.0074433
      14.4521    0.0073585
      14.4863     0.007276
      14.5205   0.00719581
      14.5548   0.00711802
       14.589   0.00704247
      14.6233   0.00696905
      14.6575   0.00689781
      14.6918   0.00682858
       14.726   0.00676119
      14.7603   0.00669552
      14.7945   0.00663127
      14.8288   0.00656826
       14.863   0.00650656
      14.8973   0.00644606
      14.9315   0.00638667
      14.9658   0.00632831
           15   0.00627091
      15.0342   0.00621441
      15.0685   0.00615879
      15.1027   0.00610406
       15.137   0.00605018
      15.1712   0.00599718
      15.2055   0.00594503
      15.2397   0.00589371
       15.274   0.00584328
      15.3082   0.00579369
      15.3425    0.0057449
      15.3767   0.00569688
       15.411   0.00564962
      15.4452   0.00560311
      15.4795   0.00555734
      15.5137   0.00551239
      15.5479   0.00546817
      15.5822   0.00542469
      15.6164   0.00538191
      15.6507   0.00533983
      15.6849   0.00529843
      15.7192   0.00525772
      15.7534   0.00521768
      15.7877    0.0051783
      15.8219   0.00513957
      15.8562   0.00510152
      15.8904   0.00506414
      15.9247   0.00502738
      15.9589   0.00499121
      15.9932   0.00495558
      16.0274   0.00492042
      16.0616   0.00488571
      16.0959   0.00485142
      16.1301   0.00481756
      16.1644   0.00478412
      16.1986   0.00475109
      16.2329   0.00471847
      16.2671   0.00468625
      16.3014   0.00465443
      16.3356     0.004623
      16.3699   0.00459196
      16.4041   0.00456131
      16.4384   0.00453104
      16.4726   0.00450113
      16.5068   0.00447157
      16.5411    0.0044424
      16.5753    0.0044136
      16.6096    0.0043851
      16.6438   0.00435685
      16.6781   0.00432883
      16.7123     0.004301
      16.7466   0.00427335
      16.7808   0.00424584
      16.8151   0.00421849
      16.8493   0.00419128
      16.8836    0.0041642
      16.9178   0.00413727
      16.9521   0.00411048
      16.9863   0.00408383
      17.0205   0.00405733
      17.0548   0.00403098
       17.089    0.0040048
      17.1233   0.00397878
      17.1575   0.00395293
      17.1918   0.00392726
       17.226   0.00390177
      17.2603   0.00387645
      17.2945   0.00385132
      17.3288   0.00382638
       17.363   0.00380164
      17.3973   0.00377708
      17.4315   0.00375271
      17.4658   0.00372848
         17.5   0.00370437
      17.5342   0.00368036
      17.5685   0.00365643
      17.6027   0.00363258
       17.637   0.00360879
      17.6712   0.00358508
      17.7055   0.00356142
      17.7397   0.00353782
       17.774   0.00351427
      17.8082   0.00349079
      17.8425   0.00346735
      17.8767   0.00344398
       17.911   0.00342066
      17.9452    0.0033974
      17.9795   0.00337419
      18.0137   0.00335104
      18.0479   0.00332794
      18.0822   0.00330491
      18.1164   0.00328193
      18.1507   0.00325901
      18.1849    0.0032361
      18.2192    0.0032132
      18.2534   0.00319033
      18.2877   0.00316748
      18.3219   0.00314467
      18.3562   0.00312188
      18.3904   0.00309907
      18.4247   0.00307627
      18.4589    0.0030535
      18.4932   0.00303076
      18.5274   0.00300806
      18.5616   0.00298534
      18.5959    0.0029626
      18.6301   0.00293985
      18.6644   0.00291711
      18.6986   0.00289438
      18.7329   0.00287167
      18.7671   0.00284898
      18.8014    0.0028263
      18.8356   0.00280365
      18.8699   0.00278106
      18.9041   0.00275854
      18.9384   0.00273612
      18.9726   0.00271383
      19.0068    0.0026916
      19.0411   0.00266944
      19.0753   0.00264736
      19.1096   0.00262532
      19.1438   0.00260336
      19.1781   0.00258151
      19.2123   0.00255979
      19.2466    0.0025382
      19.2808   0.00251677
      19.3151    0.0024955
      19.3493   0.00247441
      19.3836    0.0024535
      19.4178   0.00243278
      19.4521   0.00241225
      19.4863   0.00239192
      19.5205    0.0023718
      19.5548    0.0023519
       19.589   0.00233221
      19.6233   0.00231271
      19.6575   0.00229339
      19.6918   0.00227428
       19.726   0.00225537
      19.7603   0.00223661
      19.7945   0.00221801
      19.8288   0.00219959
       19.863   0.00218134
      19.8973   0.00216327
      19.9315   0.00214539
      19.9658   0.00212772
           20   0.00211024
      20.0342   0.00209299
      20.0685   0.00207594
      20.1027   0.00205912
       20.137   0.00204254
      20.1712   0.00202619
      20.2055   0.00201008
      20.2397    0.0019942
       20.274   0.00197857
      20.3082   0.00196315
      20.3425   0.00194795
      20.3767   0.00193295
       20.411   0.00191817
      20.4452   0.00190359
      20.4795   0.00188919
      20.5137   0.00187489
      20.5479   0.00186067
      20.5822   0.00184654
      20.6164    0.0018325
      20.6507   0.00181857
      20.6849   0.00180476
      20.7192   0.00179108
      20.7534   0.00177753
      20.7877   0.00176413
      20.8219   0.00175087
      20.8562   0.00173778
      20.8904   0.00172486
      20.9247    0.0017121
      20.9589   0.00169952
      20.9932   0.00168712
      21.0274   0.00167492
      21.0616    0.0016629
      21.0959   0.00165106
      21.1301   0.00163938
      21.1644   0.00162785
      21.1986   0.00161649
      21.2329   0.00160529
      21.2671   0.00159424
      21.3014   0.00158333
      21.3356   0.00157257
      21.3699   0.00156193
      21.4041   0.00155143
      21.4384   0.00154106
      21.4726   0.00153078
      21.5068   0.00152058
      21.5411   0.00151049
      21.5753    0.0015005
      21.6096    0.0014906
      21.6438   0.00148081
      21.6781   0.00147111
      21.7123   0.00146152
      21.7466   0.00145204
      21.7808   0.00144266
      21.8151   0.00143333
      21.8493   0.00142405
      21.8836   0.00141485
      21.9178   0.00140572
      21.9521   0.00139668
      21.9863   0.00138772
      22.0205   0.00137885
      22.0548   0.00137007
       22.089   0.00136139
      22.1233   0.00135282
      22.1575   0.00134434
      22.1918   0.00133598
       22.226   0.00132772
      22.2603   0.00131957
      22.2945   0.00131152
      22.3288   0.00130359
       22.363   0.00129575
      22.3973   0.00128802
      22.4315   0.00128038
      22.4658   0.00127284
         22.5   0.00126539
      22.5342     0.001258
      22.5685   0.00125067
      22.6027    0.0012434
       22.637   0.00123618
      22.6712   0.00122903
      22.7055   0.00122193
      22.7397   0.00121488
       22.774    0.0012079
      22.8082   0.00120094
      22.8425     0.001194
      22.8767    0.0011871
       22.911   0.00118023
      22.9452    0.0011734
      22.9795   0.00116662
      23.0137    0.0011599
      23.0479   0.00115322
      23.0822   0.00114661
      23.1164   0.00114007
      23.1507    0.0011336
      23.1849    0.0011272
      23.2192   0.00112088
      23.2534   0.00111462
      23.2877   0.00110844
      23.3219   0.00110233
      23.3562    0.0010963
      23.3904   0.00109035
      23.4247   0.00108448
      23.4589   0.00107869
      23.4932   0.00107298
      23.5274   0.00106736
      23.5616   0.00106182
      23.5959   0.00105637
      23.6301   0.00105099
      23.6644    0.0010457
      23.6986   0.00104047
      23.7329   0.00103531
      23.7671   0.00103021
      23.8014   0.00102518
      23.8356   0.00102021
      23.8699    0.0010153
      23.9041   0.00101044
      23.9384   0.00100564
      23.9726    0.0010009
      24.0068  0.000996208
      24.0411  0.000991563
      24.0753  0.000986963
      24.1096  0.000982407
      24.1438  0.000977892
      24.1781  0.000973419
      24.2123  0.000968972
      24.2466   0.00096454
      24.2808  0.000960125
      24.3151  0.000955729
      24.3493  0.000951356
      24.3836  0.000947008
      24.4178  0.000942687
      24.4521  0.000938395
      24.4863  0.000934133
      24.5205  0.000929904
      24.5548  0.000925705
       24.589  0.000921539
      24.6233  0.000917412
      24.6575  0.000913326
      24.6918  0.000909281
       24.726  0.000905275
      24.7603  0.000901306
      24.7945  0.000897373
      24.8288  0.000893477
       24.863  0.000889615
      24.8973  0.000885754
      24.9315  0.000881895
      24.9658  0.000878042
           25  0.000874198
      25.0342  0.000870367
      25.0685  0.000866551
      25.1027  0.000862754
       25.137  0.000858977
      25.1712  0.000855224
      25.2055  0.000851496
      25.2397  0.000847794
       25.274  0.000844119
      25.3082  0.000840473
      25.3425  0.000836855
      25.3767  0.000833268
       25.411  0.000829711
      25.4452   0.00082617
      25.4795  0.000822649
      25.5137  0.000819149
      25.5479  0.000815668
      25.5822  0.000812206
      25.6164  0.000808761
      25.6507  0.000805334
      25.6849  0.000801925
      25.7192  0.000798534
      25.7534  0.000795163
      25.7877  0.000791813
      25.8219  0.000788485
      25.8562  0.000785181
      25.8904  0.000781901
      25.9247  0.000778647
      25.9589  0.000775419
      25.9932  0.000772219
      26.0274  0.000769048
      26.0616  0.000765906
      26.0959  0.000762796
      26.1301  0.000759715
      26.1644  0.000756666
      26.1986  0.000753652
      26.2329  0.000750673
      26.2671  0.000747725
      26.3014  0.000744807
      26.3356  0.000741918
      26.3699  0.000739056
      26.4041  0.000736221
      26.4384  0.000733413
      26.4726  0.000730633
      26.5068  0.000727879
      26.5411  0.000725151
      26.5753  0.000722449
      26.6096  0.000719773
      26.6438  0.000717121
      26.6781  0.000714492
      26.7123  0.000711886
      26.7466  0.000709306
      26.7808  0.000706752
      26.8151  0.000704225
      26.8493  0.000701724
      26.8836  0.000699248
      26.9178  0.000696798
      26.9521   0.00069437
      26.9863  0.000691964
      27.0205  0.000689575
      27.0548    0.0006872
       27.089  0.000684838
      27.1233  0.000682485
      27.1575   0.00068014
      27.1918  0.000677801
       27.226  0.000675459
      27.2603  0.000673109
      27.2945  0.000670753
      27.3288  0.000668393
       27.363  0.000666031
      27.3973  0.000663669
      27.4315  0.000661309
      27.4658  0.000658953
         27.5  0.000656601
      27.5342  0.000654257
      27.5685  0.000651921
      27.6027  0.000649592
       27.637  0.000647274
      27.6712  0.000644969
      27.7055  0.000642679
      27.7397  0.000640405
       27.774   0.00063815
      27.8082  0.000635912
      27.8425  0.000633693
      27.8767  0.000631492
       27.911   0.00062931
      27.9452  0.000627146
      27.9795  0.000624999
      28.0137  0.000622868
      28.0479  0.000620752
      28.0822  0.000618649
      28.1164  0.000616556
      28.1507  0.000614473
      28.1849  0.000612398
      28.2192  0.000610331
      28.2534  0.000608263
      28.2877  0.000606194
      28.3219  0.000604124
      28.3562  0.000602056
      28.3904  0.000599991
      28.4247   0.00059793
      28.4589  0.000595873
      28.4932  0.000593823
      28.5274   0.00059178
      28.5616  0.000589745
      28.5959  0.000587717
      28.6301  0.000585699
      28.6644  0.000583689
      28.6986  0.000581692
      28.7329  0.000579704
      28.7671  0.000577725
      28.8014  0.000575752
      28.8356  0.000573786
      28.8699  0.000571823
      28.9041  0.000569865
      28.9384   0.00056791
      28.9726  0.000565958
      29.0068  0.000564007
      29.0411  0.000562059
      29.0753  0.000560113
      29.1096  0.000558169
      29.1438  0.000556227
      29.1781  0.000554287
      29.2123   0.00055235
      29.2466  0.000550416
      29.2808  0.000548483
      29.3151  0.000546554
      29.3493  0.000544628
      29.3836  0.000542709
      29.4178  0.000540797
      29.4521  0.000538892
      29.4863  0.000536997
      29.5205   0.00053511
      29.5548  0.000533234
       29.589  0.000531369
      29.6233  0.000529514
      29.6575   0.00052767
      29.6918  0.000525836
       29.726  0.000524014
      29.7603  0.000522203
      29.7945  0.000520405
      29.8288   0.00051862
       29.863  0.000516846
      29.8973  0.000515083
      29.9315  0.000513329
      29.9658  0.000511585
           30  0.000509848
      30.0342  0.000508119
      30.0685  0.000506396
      30.1027  0.000504679
       30.137  0.000502967
      30.1712  0.000501258
      30.2055  0.000499551
      30.2397  0.000497847
       30.274  0.000496143
      30.3082  0.000494439
      30.3425  0.000492732
      30.3767  0.000491022
       30.411  0.000489308
      30.4452   0.00048759
      30.4795  0.000485864
      30.5137  0.000484131
      30.5479  0.000482387
      30.5822  0.000480633
      30.6164   0.00047887
      30.6507  0.000477096
      30.6849   0.00047531
      30.7192  0.000473509
      30.7534  0.000471698
      30.7877  0.000469879
      30.8219  0.000468058
      30.8562  0.000466236
      30.8904  0.000464415
      30.9247  0.000462597
      30.9589  0.000460784
      30.9932  0.000458977
      31.0274  0.000457177
      31.0616  0.000455385
      31.0959  0.000453603
      31.1301  0.000451831
      31.1644  0.000450071
      31.1986  0.000448323
      31.2329  0.000446588
      31.2671  0.000444864
      31.3014  0.000443152
      31.3356  0.000441452
      31.3699  0.000439764
      31.4041  0.000438087
      31.4384  0.000436421
      31.4726  0.000434767
      31.5068  0.000433124
      31.5411  0.000431491
      31.5753   0.00042987
      31.6096  0.000428258
      31.6438  0.000426656
      31.6781  0.000425064
      31.7123  0.000423482
      31.7466  0.000421908
      31.7808  0.000420343
      31.8151  0.000418786
      31.8493  0.000417237
      31.8836  0.000415695
      31.9178  0.000414159
      31.9521   0.00041263
      31.9863  0.000411107
      32.0205  0.000409589
      32.0548  0.000408075
       32.089  0.000406565
      32.1233  0.000405058
      32.1575  0.000403554
      32.1918  0.000402052
       32.226  0.000400552
      32.2603  0.000399051
      32.2945  0.000397549
      32.3288  0.000396047
       32.363  0.000394544
      32.3973  0.000393043
      32.4315  0.000391542
      32.4658  0.000390042
         32.5  0.000388544
      32.5342  0.000387049
      32.5685  0.000385556
      32.6027  0.000384065
       32.637  0.000382578
      32.6712  0.000381093
      32.7055  0.000379612
      32.7397  0.000378135
       32.774  0.000376661
      32.8082  0.000375192
      32.8425  0.000373726
      32.8767  0.000372265
       32.911  0.000370809
      32.9452  0.000369357
      32.9795  0.000367911
      33.0137  0.000366469
      33.0479  0.000365032
      33.0822  0.000363601
      33.1164  0.000362175
      33.1507  0.000360755
      33.1849   0.00035934
      33.2192   0.00035793
      33.2534  0.000356526
      33.2877  0.000355128
      33.3219  0.000353735
      33.3562  0.000352348
      33.3904  0.000350966
      33.4247   0.00034959
      33.4589   0.00034822
      33.4932  0.000346857
      33.5274  0.000345499
      33.5616  0.000344148
      33.5959  0.000342802
      33.6301  0.000341463
      33.6644   0.00034013
      33.6986  0.000338804
      33.7329  0.000337485
      33.7671  0.000336173
      33.8014  0.000334868
      33.8356  0.000333571
      33.8699  0.000332281
      33.9041  0.000330998
      33.9384  0.000329722
      33.9726  0.000328454
      34.0068  0.000327192
      34.0411  0.000325938
      34.0753   0.00032469
      34.1096  0.000323449
      34.1438  0.000322214
      34.1781  0.000320986
      34.2123  0.000319763
      34.2466  0.000318547
      34.2808  0.000317336
      34.3151   0.00031613
      34.3493   0.00031493
      34.3836  0.000313734
      34.4178  0.000312543
      34.4521  0.000311357
      34.4863  0.000310175
      34.5205  0.000308996
      34.5548  0.000307822
       34.589  0.000306651
      34.6233  0.000305483
      34.6575  0.000304319
      34.6918  0.000303158
       34.726  0.000301999
      34.7603  0.000300844
      34.7945  0.000299692
      34.8288  0.000298543
       34.863  0.000297396
      34.8973  0.000296253
      34.9315  0.000295113
      34.9658  0.000293978
           35  0.000292846
      35.0342   0.00029172
      35.0685  0.000290598
      35.1027  0.000289481
       35.137  0.000288371
      35.1712  0.000287266
      35.2055  0.000286167
      35.2397  0.000285075
       35.274  0.000283991
      35.3082  0.000282913
      35.3425  0.000281843
      35.3767  0.000280781
       35.411  0.000279726
      35.4452  0.000278678
      35.4795  0.000277638
      35.5137  0.000276605
      35.5479  0.000275579
      35.5822  0.000274561
      35.6164   0.00027355
      35.6507  0.000272546
      35.6849  0.000271549
      35.7192  0.000270559
      35.7534  0.000269576
      35.7877  0.000268601
      35.8219  0.000267632
      35.8562   0.00026667
      35.8904  0.000265714
      35.9247  0.000264764
      35.9589   0.00026382
      35.9932  0.000262882
      36.0274  0.000261948
      36.0616   0.00026102
      36.0959  0.000260097
      36.1301  0.000259179
      36.1644  0.000258265
      36.1986  0.000257356
      36.2329  0.000256451
      36.2671   0.00025555