#         Time        inlet       outlet
      1.2e-06            (0.0150581 0 0)            (-0.0111094 -0.00861522 -0.00537758)
     2.64e-06            (0.0150581 0 0)            (-0.011114 -0.00861878 -0.00537984)
    4.368e-06            (0.0150581 0 0)            (-0.011114 -0.00861876 -0.00537983)
   6.4416e-06            (0.0150581 0 0)            (-0.011114 -0.00861873 -0.00537981)
  8.92992e-06            (0.0150581 0 0)            (-0.011114 -0.00861872 -0.00537981)
  1.19159e-05            (0.0150581 0 0)            (-0.011114 -0.00861872 -0.00537981)
  1.54991e-05            (0.0150581 0 0)            (-0.011114 -0.00861873 -0.00537981)
  1.97989e-05            (0.0150581 0 0)            (-0.011114 -0.00861873 -0.00537981)
  2.49587e-05            (0.0150581 0 0)            (-0.011114 -0.00861873 -0.00537982)
  3.11504e-05            (0.0150581 0 0)            (-0.011114 -0.00861873 -0.00537982)
  3.85805e-05            (0.0150581 0 0)            (-0.011114 -0.00861873 -0.00537981)
  4.74965e-05            (0.0150581 0 0)            (-0.011114 -0.00861873 -0.00537981)
  5.81958e-05            (0.0150581 0 0)            (-0.011114 -0.00861873 -0.00537981)
   7.1035e-05            (0.0150581 0 0)            (-0.011114 -0.00861873 -0.00537981)
   8.6442e-05            (0.0150581 0 0)            (-0.011114 -0.00861873 -0.00537981)
   0.00010493            (0.0150581 0 0)            (-0.011114 -0.00861874 -0.00537982)
  0.000127116            (0.0150581 0 0)            (-0.011114 -0.00861874 -0.00537982)
   0.00015374            (0.0150581 0 0)            (-0.011114 -0.00861873 -0.00537982)
  0.000185688            (0.0150581 0 0)            (-0.011114 -0.00861873 -0.00537981)
  0.000224025            (0.0150581 0 0)            (-0.011114 -0.00861874 -0.00537982)
   0.00027003            (0.0150581 0 0)            (-0.011114 -0.00861873 -0.00537981)
  0.000325236            (0.0150581 0 0)            (-0.011114 -0.00861874 -0.00537982)
  0.000391483            (0.0150581 0 0)            (-0.011114 -0.00861875 -0.00537982)
   0.00047098            (0.0150581 0 0)            (-0.0111141 -0.00861879 -0.00537985)
  0.000566376            (0.0150581 0 0)            (-0.0111139 -0.00861868 -0.00537978)
   0.00068085            (0.0150581 0 0)            (-0.011114 -0.00861876 -0.00537983)
  0.000818221            (0.0150581 0 0)            (-0.011114 -0.00861877 -0.00537984)
  0.000983063            (0.0150581 0 0)            (-0.0111139 -0.00861868 -0.00537979)
   0.00118087            (0.0150581 0 0)            (-0.0111139 -0.00861866 -0.00537977)
   0.00141824            (0.0150581 0 0)            (-0.0111139 -0.0086187 -0.00537979)
    0.0017031            (0.0150581 0 0)            (-0.011114 -0.00861871 -0.0053798)
   0.00204491            (0.0150581 0 0)            (-0.011114 -0.00861876 -0.00537983)
   0.00245508            (0.0150581 0 0)            (-0.0111139 -0.00861868 -0.00537978)
    0.0029473            (0.0150581 0 0)            (-0.0111139 -0.00861868 -0.00537978)
   0.00353797            (0.0150581 0 0)            (-0.0111139 -0.00861868 -0.00537978)
   0.00424679            (0.0150581 0 0)            (-0.0111138 -0.00861862 -0.00537975)
   0.00509742            (0.0150581 0 0)            (-0.0111138 -0.00861861 -0.00537974)
   0.00611825            (0.0150581 0 0)            (-0.0111138 -0.00861862 -0.00537974)
   0.00734314            (0.0150581 0 0)            (-0.0111138 -0.00861862 -0.00537974)
   0.00881286            (0.0150581 0 0)            (-0.0111139 -0.00861863 -0.00537975)
    0.0105765            (0.0150581 0 0)            (-0.0111138 -0.00861859 -0.00537973)
    0.0126925            (0.0150581 0 0)            (-0.011114 -0.00861871 -0.0053798)
    0.0152319            (0.0150581 0 0)            (-0.011114 -0.00861871 -0.0053798)
    0.0182788            (0.0150581 0 0)            (-0.0111139 -0.00861868 -0.00537978)
    0.0219337            (0.0150581 0 0)            (-0.0111139 -0.00861866 -0.00537977)
    0.0263197            (0.0150581 0 0)            (-0.011114 -0.00861869 -0.00537979)
    0.0315829            (0.0150581 0 0)            (-0.0111139 -0.00861863 -0.00537975)
     0.037896            (0.0150581 0 0)            (-0.011114 -0.0086187 -0.00537979)
    0.0454717            (0.0150581 0 0)            (-0.011114 -0.00861873 -0.00537982)
    0.0545626            (0.0150581 0 0)            (-0.0111139 -0.00861868 -0.00537977)
    0.0654797            (0.0150581 0 0)            (-0.0111138 -0.00861863 -0.00537974)
    0.0785686            (0.0150581 0 0)            (-0.0111141 -0.00861887 -0.00537988)
     0.094292            (0.0150581 0 0)            (-0.0111139 -0.00861873 -0.00537979)
      0.11316            (0.0150581 0 0)            (-0.0111137 -0.00861865 -0.00537973)
     0.135784            (0.0150581 0 0)            (-0.0111134 -0.00861852 -0.00537966)
     0.162077            (0.0150581 0 0)            (-0.011114 -0.00861901 -0.00537995)
     0.192127            (0.0150581 0 0)            (-0.0111141 -0.00861901 -0.00537998)
     0.225985            (0.0150581 0 0)            (-0.0111143 -0.00861908 -0.00538005)
     0.263576            (0.0150581 0 0)            (-0.0111132 -0.00861788 -0.00537945)
     0.300292            (0.0150581 0 0)            (-0.0111139 -0.00861813 -0.0053797)
     0.336724            (0.0150581 0 0)            (-0.0111143 -0.00861819 -0.00537995)
     0.372873            (0.0150581 0 0)            (-0.0111135 -0.00861827 -0.00538001)
     0.408742            (0.0150581 0 0)            (-0.0111123 -0.00861969 -0.00538062)
     0.444894            (0.0150581 0 0)            (-0.0111101 -0.0086234 -0.00538213)
     0.481046            (0.0150581 0 0)            (-0.011104 -0.00862825 -0.00538355)
     0.517489            (0.0150581 0 0)            (-0.0110967 -0.00863729 -0.00538653)
     0.554231            (0.0150581 0 0)            (-0.0110852 -0.00864887 -0.0053898)
     0.591279            (0.0150581 0 0)            (-0.0110724 -0.0086648 -0.0053945)
     0.628641            (0.0150581 0 0)            (-0.0110555 -0.00868203 -0.00539889)
     0.666325            (0.0150581 0 0)            (-0.0110385 -0.00870171 -0.00540396)
     0.704009            (0.0150581 0 0)            (-0.0110209 -0.00872136 -0.0054086)
     0.742027            (0.0150581 0 0)            (-0.0110041 -0.00874036 -0.00541281)
     0.780044            (0.0150581 0 0)            (-0.0109893 -0.00875747 -0.0054163)
     0.818408            (0.0150581 0 0)            (-0.0109768 -0.00877186 -0.00541888)
     0.856771            (0.0150581 0 0)            (-0.0109668 -0.00878268 -0.00542032)
     0.895134            (0.0150581 0 0)            (-0.0109609 -0.00879107 -0.00542134)
     0.933497            (0.0150581 0 0)            (-0.0109574 -0.00879598 -0.0054213)
     0.971861            (0.0150581 0 0)            (-0.0109563 -0.00879802 -0.00542056)
      1.01022            (0.0150581 0 0)            (-0.0109576 -0.00879793 -0.00541933)
      1.04859            (0.0150581 0 0)            (-0.0109583 -0.00879436 -0.00541663)
      1.08695            (0.0150581 0 0)            (-0.0109629 -0.00879153 -0.00541502)
      1.12531            (0.0150581 0 0)            (-0.0109666 -0.00878656 -0.00541239)
      1.16368            (0.0150581 0 0)            (-0.0109728 -0.00878267 -0.00541072)
      1.20204            (0.0150581 0 0)            (-0.0109785 -0.0087783 -0.00540874)
       1.2404            (0.0150581 0 0)            (-0.0109819 -0.00877233 -0.00540577)
      1.27877            (0.0150581 0 0)            (-0.0109865 -0.00876777 -0.00540364)
      1.31713            (0.0150581 0 0)            (-0.010991 -0.00876398 -0.00540184)
      1.35549            (0.0150581 0 0)            (-0.0109937 -0.0087596 -0.00539956)
      1.39386            (0.0150581 0 0)            (-0.0109978 -0.00875724 -0.00539837)
      1.43222            (0.0150581 0 0)            (-0.0110003 -0.00875457 -0.00539689)
      1.47058            (0.0150581 0 0)            (-0.0110029 -0.00875267 -0.0053959)
      1.50895            (0.0150581 0 0)            (-0.0110043 -0.00875073 -0.00539479)
      1.54731            (0.0150581 0 0)            (-0.0110061 -0.00874977 -0.00539412)
      1.58567            (0.0150581 0 0)            (-0.0110067 -0.00874833 -0.00539318)
      1.62404            (0.0150581 0 0)            (-0.0110078 -0.00874786 -0.00539291)
       1.6624            (0.0150581 0 0)            (-0.0110082 -0.00874714 -0.00539248)
      1.70076            (0.0150581 0 0)            (-0.0110089 -0.00874697 -0.00539236)
      1.73913            (0.0150581 0 0)            (-0.0110093 -0.00874684 -0.00539232)
      1.77749            (0.0150581 0 0)            (-0.011009 -0.00874633 -0.00539206)
      1.81585            (0.0150581 0 0)            (-0.0110089 -0.00874617 -0.00539202)
      1.85421            (0.0150581 0 0)            (-0.0110095 -0.00874657 -0.00539237)
      1.89258            (0.0150581 0 0)            (-0.0110098 -0.0087468 -0.00539264)
      1.93094            (0.0150581 0 0)            (-0.0110097 -0.00874688 -0.00539282)
       1.9693            (0.0150581 0 0)            (-0.0110099 -0.0087471 -0.00539309)
      2.00767            (0.0150581 0 0)            (-0.0110089 -0.00874647 -0.0053928)
      2.04603            (0.0150581 0 0)            (-0.0110092 -0.00874686 -0.00539317)
      2.08439            (0.0150581 0 0)            (-0.0110092 -0.00874694 -0.00539335)
      2.12276            (0.0150581 0 0)            (-0.0110085 -0.00874652 -0.00539322)
      2.16112            (0.0150581 0 0)            (-0.0110088 -0.00874689 -0.00539357)
      2.19948            (0.0150581 0 0)            (-0.0110081 -0.00874647 -0.0053934)
      2.23785            (0.0150581 0 0)            (-0.0110082 -0.0087466 -0.00539358)
      2.27621            (0.0150581 0 0)            (-0.0110075 -0.00874612 -0.00539338)
      2.31457            (0.0150581 0 0)            (-0.0110076 -0.00874626 -0.00539357)
      2.35294            (0.0150581 0 0)            (-0.0110081 -0.00874667 -0.00539389)
       2.3913            (0.0150581 0 0)            (-0.0110087 -0.00874717 -0.00539426)
      2.42966            (0.0150581 0 0)            (-0.0110093 -0.00874761 -0.0053946)
      2.46803            (0.0150581 0 0)            (-0.011008 -0.00874674 -0.00539412)
      2.50639            (0.0150581 0 0)            (-0.0110081 -0.00874669 -0.0053941)
      2.54475            (0.0150581 0 0)            (-0.0110079 -0.00874657 -0.00539408)
      2.58312            (0.0150581 0 0)            (-0.0110079 -0.00874659 -0.00539408)
      2.62148            (0.0150581 0 0)            (-0.0110081 -0.00874674 -0.00539423)
      2.65984            (0.0150581 0 0)            (-0.0110077 -0.00874643 -0.00539406)
      2.69821            (0.0150581 0 0)            (-0.0110081 -0.00874681 -0.00539428)
      2.73657            (0.0150581 0 0)            (-0.0110075 -0.00874637 -0.005394)
      2.77493            (0.0150581 0 0)            (-0.011008 -0.00874671 -0.00539426)
       2.8133            (0.0150581 0 0)            (-0.0110081 -0.00874675 -0.0053943)
      2.85166            (0.0150581 0 0)            (-0.0110082 -0.00874684 -0.00539435)
      2.89002            (0.0150581 0 0)            (-0.0110084 -0.00874701 -0.0053944)
      2.92839            (0.0150581 0 0)            (-0.011008 -0.00874665 -0.00539418)
      2.96675            (0.0150581 0 0)            (-0.011008 -0.00874662 -0.00539419)
      3.00511            (0.0150581 0 0)            (-0.0110084 -0.00874691 -0.00539435)
      3.04348            (0.0150581 0 0)            (-0.0110079 -0.00874651 -0.00539404)
      3.08184            (0.0150581 0 0)            (-0.0110096 -0.00874777 -0.00539486)
       3.1202            (0.0150581 0 0)            (-0.0110091 -0.00874736 -0.00539463)
      3.15856            (0.0150581 0 0)            (-0.0110089 -0.00874734 -0.00539452)
      3.19693            (0.0150581 0 0)            (-0.0110079 -0.00874642 -0.00539404)
      3.23529            (0.0150581 0 0)            (-0.011009 -0.00874728 -0.00539459)
      3.27365            (0.0150581 0 0)            (-0.0110087 -0.00874703 -0.00539443)
      3.31202            (0.0150581 0 0)            (-0.0110087 -0.00874704 -0.00539445)
      3.35038            (0.0150581 0 0)            (-0.0110079 -0.00874641 -0.00539403)
      3.38874            (0.0150581 0 0)            (-0.0110083 -0.00874665 -0.00539422)
      3.42711            (0.0150581 0 0)            (-0.0110063 -0.00874508 -0.00539319)
      3.46547            (0.0150581 0 0)            (-0.011008 -0.00874633 -0.00539399)
      3.50383            (0.0150581 0 0)            (-0.0110084 -0.00874673 -0.00539422)
       3.5422            (0.0150581 0 0)            (-0.0110088 -0.00874716 -0.00539447)
      3.58056            (0.0150581 0 0)            (-0.0110089 -0.00874723 -0.00539452)
      3.61892            (0.0150581 0 0)            (-0.0110078 -0.00874625 -0.0053939)
      3.65729            (0.0150581 0 0)            (-0.0110072 -0.00874586 -0.0053936)
      3.69565            (0.0150581 0 0)            (-0.0110077 -0.00874626 -0.00539387)
      3.73401            (0.0150581 0 0)            (-0.0110073 -0.00874611 -0.00539378)
      3.77238            (0.0150581 0 0)            (-0.0110068 -0.00874566 -0.00539351)
      3.81074            (0.0150581 0 0)            (-0.0110078 -0.00874643 -0.00539397)
       3.8491            (0.0150581 0 0)            (-0.0110078 -0.00874647 -0.00539399)
      3.88747            (0.0150581 0 0)            (-0.011009 -0.0087475 -0.00539463)
      3.92583            (0.0150581 0 0)            (-0.0110081 -0.00874682 -0.00539417)
      3.96419            (0.0150581 0 0)            (-0.0110086 -0.00874725 -0.00539445)
      4.00256            (0.0150581 0 0)            (-0.011008 -0.00874686 -0.00539421)
      4.04092            (0.0150581 0 0)            (-0.0110083 -0.00874704 -0.0053943)
      4.07928            (0.0150581 0 0)            (-0.0110081 -0.00874686 -0.00539422)
      4.11765            (0.0150581 0 0)            (-0.0110076 -0.00874653 -0.00539398)
      4.15601            (0.0150581 0 0)            (-0.0110074 -0.00874634 -0.00539387)
      4.19437            (0.0150581 0 0)            (-0.0110085 -0.0087473 -0.00539446)
      4.23274            (0.0150581 0 0)            (-0.0110086 -0.00874728 -0.00539449)
       4.2711            (0.0150581 0 0)            (-0.0110094 -0.00874781 -0.00539485)
      4.30946            (0.0150581 0 0)            (-0.0110084 -0.00874701 -0.00539434)
      4.34783            (0.0150581 0 0)            (-0.0110086 -0.00874711 -0.00539439)
      4.38619            (0.0150581 0 0)            (-0.0110076 -0.00874647 -0.00539397)
      4.42455            (0.0150581 0 0)            (-0.0110079 -0.00874667 -0.00539411)
      4.46291            (0.0150581 0 0)            (-0.011008 -0.00874665 -0.00539414)
      4.50128            (0.0150581 0 0)            (-0.0110087 -0.0087472 -0.00539441)
      4.53964            (0.0150581 0 0)            (-0.0110077 -0.00874643 -0.00539399)
        4.578            (0.0150581 0 0)            (-0.0110086 -0.00874704 -0.0053944)
      4.61637            (0.0150581 0 0)            (-0.0110081 -0.00874658 -0.00539411)
      4.65473            (0.0150581 0 0)            (-0.0110095 -0.00874771 -0.0053948)
      4.69309            (0.0150581 0 0)            (-0.0110082 -0.00874661 -0.00539417)
      4.73146            (0.0150581 0 0)            (-0.0110082 -0.0087466 -0.00539416)
      4.76982            (0.0150581 0 0)            (-0.0110078 -0.00874631 -0.00539398)
      4.80818            (0.0150581 0 0)            (-0.0110083 -0.0087467 -0.0053942)
      4.84655            (0.0150581 0 0)            (-0.0110075 -0.00874619 -0.00539386)
      4.88491            (0.0150581 0 0)            (-0.0110081 -0.00874667 -0.0053942)
      4.92327            (0.0150581 0 0)            (-0.0110071 -0.00874597 -0.00539372)
      4.96164            (0.0150581 0 0)            (-0.0110083 -0.00874687 -0.00539429)
            5            (0.0150581 0 0)            (-0.0110081 -0.00874668 -0.00539419)
      5.03846            (0.0150581 0 0)            (-0.0110083 -0.00874679 -0.00539426)
      5.07692            (0.0150581 0 0)            (-0.0110078 -0.00874649 -0.00539408)
      5.11538            (0.0150581 0 0)            (-0.0110084 -0.00874695 -0.00539439)
      5.15385            (0.0150581 0 0)            (-0.0110092 -0.0087475 -0.00539473)
      5.19231            (0.0150581 0 0)            (-0.0110086 -0.00874699 -0.0053944)
      5.23077            (0.0150581 0 0)            (-0.0110077 -0.00874638 -0.00539399)
      5.26923            (0.0150581 0 0)            (-0.0110081 -0.0087467 -0.00539418)
      5.30769            (0.0150581 0 0)            (-0.0110088 -0.00874711 -0.00539439)
      5.34615            (0.0150581 0 0)            (-0.0110089 -0.00874724 -0.00539449)
      5.38462            (0.0150581 0 0)            (-0.011008 -0.00874656 -0.00539407)
      5.42308            (0.0150581 0 0)            (-0.011007 -0.00874575 -0.00539375)
      5.46154            (0.0150581 0 0)            (-0.0110093 -0.00874755 -0.00539484)
          5.5            (0.0150581 0 0)            (-0.0110102 -0.00874822 -0.00539525)
      5.53846            (0.0150581 0 0)            (-0.0110082 -0.00874671 -0.00539424)
      5.57692            (0.0150581 0 0)            (-0.0110086 -0.00874714 -0.00539448)
      5.61538            (0.0150581 0 0)            (-0.0110091 -0.00874747 -0.00539469)
      5.65385            (0.0150581 0 0)            (-0.0110088 -0.00874718 -0.00539452)
      5.69231            (0.0150581 0 0)            (-0.0110088 -0.00874724 -0.00539452)
      5.73077            (0.0150581 0 0)            (-0.0110085 -0.00874698 -0.00539437)
      5.76923            (0.0150581 0 0)            (-0.0110087 -0.00874711 -0.00539447)
      5.80769            (0.0150581 0 0)            (-0.0110076 -0.00874626 -0.00539391)
      5.84615            (0.0150581 0 0)            (-0.0110082 -0.00874679 -0.00539423)
      5.88462            (0.0150581 0 0)            (-0.0110088 -0.0087471 -0.00539442)
      5.92308            (0.0150581 0 0)            (-0.0110077 -0.00874635 -0.00539392)
      5.96154            (0.0150581 0 0)            (-0.0110077 -0.00874647 -0.005394)
            6            (0.0150581 0 0)            (-0.011008 -0.00874671 -0.00539415)
      6.03846            (0.0150581 0 0)            (-0.0110079 -0.00874659 -0.0053941)
      6.07692            (0.0150581 0 0)            (-0.0110085 -0.00874706 -0.0053944)
      6.11538            (0.0150581 0 0)            (-0.0110083 -0.00874682 -0.0053943)
      6.15385            (0.0150581 0 0)            (-0.0110069 -0.00874576 -0.00539357)
      6.19231            (0.0150581 0 0)            (-0.0110071 -0.00874599 -0.00539367)
      6.23077            (0.0150581 0 0)            (-0.011007 -0.0087458 -0.00539358)
      6.26923            (0.0150581 0 0)            (-0.0110092 -0.00874757 -0.00539466)
      6.30769            (0.0150581 0 0)            (-0.0110083 -0.00874692 -0.0053942)
      6.34615            (0.0150581 0 0)            (-0.0110091 -0.00874756 -0.00539464)
      6.38462            (0.0150581 0 0)            (-0.0110086 -0.00874702 -0.00539447)
      6.42308            (0.0150581 0 0)            (-0.0110085 -0.00874691 -0.00539437)
      6.46154            (0.0150581 0 0)            (-0.0110089 -0.00874728 -0.00539455)
          6.5            (0.0150581 0 0)            (-0.0110089 -0.0087473 -0.00539454)
      6.53846            (0.0150581 0 0)            (-0.011009 -0.00874741 -0.00539458)
      6.57692            (0.0150581 0 0)            (-0.0110085 -0.00874698 -0.00539432)
      6.61538            (0.0150581 0 0)            (-0.0110083 -0.00874688 -0.00539428)
      6.65385            (0.0150581 0 0)            (-0.011008 -0.00874658 -0.00539412)
      6.69231            (0.0150581 0 0)            (-0.0110082 -0.00874673 -0.00539416)
      6.73077            (0.0150581 0 0)            (-0.0110084 -0.00874685 -0.00539424)
      6.76923            (0.0150581 0 0)            (-0.0110084 -0.00874694 -0.00539425)
      6.80769            (0.0150581 0 0)            (-0.0110077 -0.00874638 -0.00539395)
      6.84615            (0.0150581 0 0)            (-0.0110091 -0.0087475 -0.00539463)
      6.88462            (0.0150581 0 0)            (-0.0110086 -0.00874713 -0.00539442)
      6.92308            (0.0150581 0 0)            (-0.0110085 -0.00874693 -0.00539433)
      6.96154            (0.0150581 0 0)            (-0.0110084 -0.00874689 -0.00539431)
            7            (0.0150581 0 0)            (-0.011008 -0.00874655 -0.00539411)
      7.03846            (0.0150581 0 0)            (-0.0110079 -0.0087464 -0.00539401)
      7.07692            (0.0150581 0 0)            (-0.0110085 -0.00874692 -0.00539435)
      7.11538            (0.0150581 0 0)            (-0.0110069 -0.00874576 -0.0053936)
      7.15385            (0.0150581 0 0)            (-0.0110075 -0.00874624 -0.00539385)
      7.19231            (0.0150581 0 0)            (-0.0110085 -0.00874692 -0.00539432)
      7.23077            (0.0150581 0 0)            (-0.0110083 -0.00874675 -0.00539421)
      7.26923            (0.0150581 0 0)            (-0.0110084 -0.00874686 -0.00539427)
      7.30769            (0.0150581 0 0)            (-0.0110075 -0.00874618 -0.00539386)
      7.34615            (0.0150581 0 0)            (-0.0110086 -0.00874705 -0.00539441)
      7.38462            (0.0150581 0 0)            (-0.0110086 -0.00874696 -0.00539435)
      7.42308            (0.0150581 0 0)            (-0.0110085 -0.00874691 -0.00539433)
      7.46154            (0.0150581 0 0)            (-0.0110086 -0.00874696 -0.00539435)
          7.5            (0.0150581 0 0)            (-0.0110081 -0.00874658 -0.00539414)
      7.53846            (0.0150581 0 0)            (-0.0110082 -0.00874667 -0.00539421)
      7.57692            (0.0150581 0 0)            (-0.0110078 -0.00874635 -0.00539406)
      7.61538            (0.0150581 0 0)            (-0.0110074 -0.0087461 -0.00539388)
      7.65385            (0.0150581 0 0)            (-0.0110073 -0.00874608 -0.0053938)
      7.69231            (0.0150581 0 0)            (-0.0110071 -0.00874601 -0.00539363)
      7.73077            (0.0150581 0 0)            (-0.011008 -0.00874672 -0.00539411)
      7.76923            (0.0150581 0 0)            (-0.0110079 -0.0087466 -0.00539408)
      7.80769            (0.0150581 0 0)            (-0.0110079 -0.00874661 -0.00539409)
      7.84615            (0.0150581 0 0)            (-0.0110082 -0.00874681 -0.00539418)
      7.88462            (0.0150581 0 0)            (-0.0110079 -0.00874658 -0.00539404)
      7.92308            (0.0150581 0 0)            (-0.0110081 -0.00874679 -0.00539418)
      7.96154            (0.0150581 0 0)            (-0.0110082 -0.00874693 -0.00539425)
            8            (0.0150581 0 0)            (-0.0110083 -0.00874697 -0.00539427)
      8.03846            (0.0150581 0 0)            (-0.0110092 -0.00874763 -0.00539472)
      8.07692            (0.0150581 0 0)            (-0.0110081 -0.00874675 -0.00539418)
      8.11538            (0.0150581 0 0)            (-0.0110082 -0.00874671 -0.00539418)
      8.15385            (0.0150581 0 0)            (-0.0110082 -0.00874669 -0.00539419)
      8.19231            (0.0150581 0 0)            (-0.0110076 -0.00874639 -0.00539405)
      8.23077            (0.0150581 0 0)            (-0.0110081 -0.00874677 -0.00539425)
      8.26923            (0.0150581 0 0)            (-0.0110082 -0.00874675 -0.00539426)
      8.30769            (0.0150581 0 0)            (-0.0110079 -0.0087465 -0.0053941)
      8.34615            (0.0150581 0 0)            (-0.0110084 -0.00874694 -0.00539435)
      8.38462            (0.0150581 0 0)            (-0.0110081 -0.00874669 -0.00539419)
      8.42308            (0.0150581 0 0)            (-0.0110082 -0.00874675 -0.00539422)
      8.46154            (0.0150581 0 0)            (-0.0110085 -0.00874697 -0.00539436)
          8.5            (0.0150581 0 0)            (-0.0110082 -0.00874674 -0.00539426)
      8.53846            (0.0150581 0 0)            (-0.0110076 -0.00874629 -0.00539394)
      8.57692            (0.0150581 0 0)            (-0.0110062 -0.00874519 -0.00539322)
      8.61538            (0.0150581 0 0)            (-0.0110076 -0.00874636 -0.00539394)
      8.65385            (0.0150581 0 0)            (-0.0110096 -0.00874785 -0.0053948)
      8.69231            (0.0150581 0 0)            (-0.0110083 -0.00874684 -0.0053942)
      8.73077            (0.0150581 0 0)            (-0.0110094 -0.00874772 -0.00539477)
      8.76923            (0.0150581 0 0)            (-0.0110079 -0.00874659 -0.00539406)
      8.80769            (0.0150581 0 0)            (-0.0110081 -0.00874671 -0.00539414)
      8.84615            (0.0150581 0 0)            (-0.0110081 -0.00874675 -0.00539417)
      8.88462            (0.0150581 0 0)            (-0.0110081 -0.0087467 -0.00539415)
      8.92308            (0.0150581 0 0)            (-0.0110081 -0.00874672 -0.00539417)
      8.96154            (0.0150581 0 0)            (-0.0110081 -0.00874676 -0.00539423)
            9            (0.0150581 0 0)            (-0.0110083 -0.0087469 -0.00539432)
      9.03846            (0.0150581 0 0)            (-0.0110088 -0.0087473 -0.00539455)
      9.07692            (0.0150581 0 0)            (-0.0110075 -0.00874634 -0.00539392)
      9.11538            (0.0150581 0 0)            (-0.0110082 -0.00874681 -0.00539424)
      9.15385            (0.0150581 0 0)            (-0.0110078 -0.00874652 -0.00539405)
      9.19231            (0.0150581 0 0)            (-0.0110083 -0.00874688 -0.0053943)
      9.23077            (0.0150581 0 0)            (-0.0110071 -0.00874594 -0.00539369)
      9.26923            (0.0150581 0 0)            (-0.0110089 -0.00874735 -0.00539453)
      9.30769            (0.0150581 0 0)            (-0.0110073 -0.00874607 -0.00539379)
      9.34615            (0.0150581 0 0)            (-0.0110085 -0.00874696 -0.00539434)
      9.38462            (0.0150581 0 0)            (-0.0110083 -0.00874689 -0.00539426)
      9.42308            (0.0150581 0 0)            (-0.0110083 -0.0087468 -0.00539422)
      9.46154            (0.0150581 0 0)            (-0.0110096 -0.00874787 -0.0053949)
          9.5            (0.0150581 0 0)            (-0.0110084 -0.0087469 -0.00539425)
      9.53846            (0.0150581 0 0)            (-0.0110083 -0.00874683 -0.00539426)
      9.57692            (0.0150581 0 0)            (-0.0110084 -0.00874691 -0.00539431)
      9.61538            (0.0150581 0 0)            (-0.0110086 -0.00874707 -0.00539439)
      9.65385            (0.0150581 0 0)            (-0.0110087 -0.00874714 -0.00539446)
      9.69231            (0.0150581 0 0)            (-0.0110085 -0.00874692 -0.00539434)
      9.73077            (0.0150581 0 0)            (-0.0110085 -0.00874685 -0.0053943)
      9.76923            (0.0150581 0 0)            (-0.0110081 -0.00874657 -0.0053941)
      9.80769            (0.0150581 0 0)            (-0.0110077 -0.00874624 -0.00539388)
      9.84615            (0.0150581 0 0)            (-0.0110083 -0.00874672 -0.00539417)
      9.88462            (0.0150581 0 0)            (-0.0110078 -0.00874633 -0.00539395)
      9.92308            (0.0150581 0 0)            (-0.0110082 -0.00874667 -0.00539416)
      9.96154            (0.0150581 0 0)            (-0.0110088 -0.00874718 -0.00539446)
           10            (0.0150581 0 0)            (-0.0110083 -0.00874684 -0.00539425)
      10.0385            (0.0150581 0 0)            (-0.0110075 -0.00874616 -0.00539384)
      10.0769            (0.0150581 0 0)            (-0.0110072 -0.00874593 -0.00539376)
      10.1154            (0.0150581 0 0)            (-0.0110076 -0.00874624 -0.00539388)
      10.1538            (0.0150581 0 0)            (-0.0110084 -0.00874688 -0.00539429)
      10.1923            (0.0150581 0 0)            (-0.0110087 -0.0087471 -0.00539445)
      10.2308            (0.0150581 0 0)            (-0.0110083 -0.00874678 -0.00539428)
      10.2692            (0.0150581 0 0)            (-0.0110091 -0.00874747 -0.00539467)
      10.3077            (0.0150581 0 0)            (-0.0110093 -0.00874756 -0.00539474)
      10.3462            (0.0150581 0 0)            (-0.0110092 -0.00874748 -0.00539472)
      10.3846            (0.0150581 0 0)            (-0.0110102 -0.00874832 -0.00539517)
      10.4231            (0.0150581 0 0)            (-0.0110076 -0.00874619 -0.00539385)
      10.4615            (0.0150581 0 0)            (-0.0110096 -0.00874774 -0.00539485)
         10.5            (0.0150581 0 0)            (-0.011009 -0.0087473 -0.00539459)
      10.5385            (0.0150581 0 0)            (-0.0110083 -0.00874681 -0.00539426)
      10.5769            (0.0150581 0 0)            (-0.0110086 -0.00874702 -0.00539438)
      10.6154            (0.0150581 0 0)            (-0.0110083 -0.00874682 -0.00539426)
      10.6538            (0.0150581 0 0)            (-0.0110066 -0.00874551 -0.00539342)
      10.6923            (0.0150581 0 0)            (-0.0110077 -0.00874648 -0.00539394)
      10.7308            (0.0150581 0 0)            (-0.0110082 -0.00874681 -0.00539414)
      10.7692            (0.0150581 0 0)            (-0.0110086 -0.00874714 -0.00539434)
      10.8077            (0.0150581 0 0)            (-0.0110086 -0.00874715 -0.00539433)
      10.8462            (0.0150581 0 0)            (-0.0110082 -0.00874683 -0.00539418)
      10.8846            (0.0150581 0 0)            (-0.011008 -0.0087466 -0.00539417)
      10.9231            (0.0150581 0 0)            (-0.0110078 -0.00874646 -0.00539405)
      10.9615            (0.0150581 0 0)            (-0.011008 -0.0087466 -0.00539412)