#         Time       outlet
      1.2e-06            0
     2.64e-06            0
    4.368e-06            0
   6.4416e-06            0
  8.92992e-06            0
  1.19159e-05            0
  1.54991e-05            0
  1.97989e-05            0
  2.49587e-05            0
  3.11504e-05            0
  3.85805e-05            0
  4.74965e-05            0
  5.81958e-05            0
   7.1035e-05            0
   8.6442e-05            0
   0.00010493            0
  0.000127116            0
   0.00015374            0
  0.000185688            0
  0.000224025            0
   0.00027003            0
  0.000325236            0
  0.000391483            0
   0.00047098            0
  0.000566376            0
   0.00068085            0
  0.000818221            0
  0.000983063            0
   0.00118087            0
   0.00141824            0
    0.0017031            0
   0.00204491            0
   0.00245508            0
    0.0029473            0
   0.00353797            0
   0.00424679            0
   0.00509742            0
   0.00611825            0
   0.00734314            0
   0.00881286            0
    0.0105765            0
    0.0126925            0
    0.0152319            0
    0.0182788            0
    0.0219337            0
    0.0263197            0
    0.0315829            0
     0.037896            0
    0.0454717            0
    0.0545626            0
    0.0654797  2.6393e-297
    0.0785686 7.11484e-268
     0.094292 1.74237e-240
      0.11316 5.71713e-215
     0.135784 2.17313e-190
     0.162959 2.65111e-164
     0.195641 1.27689e-135
     0.235021 7.55612e-113
     0.280839 -4.16825e-95
     0.333274 -1.75874e-79
     0.392346 -5.64161e-70
     0.455465 -9.10189e-62
     0.517719 -3.51713e-58
     0.579973 -1.65588e-55
     0.642226   1.3944e-54
      0.70448  6.12459e-54
     0.766734 -3.92164e-54
     0.828988 -1.90584e-53
     0.891242 -1.98129e-52
     0.953496  -2.6495e-51
      1.01575 -2.86426e-50
        1.078 -2.47884e-49
      1.14026 -2.18909e-48
      1.20251 -1.56052e-47
      1.26477 -9.31483e-47
      1.32702 -4.20532e-46
      1.38927 -9.50315e-46
      1.45153  4.64099e-45
      1.51378  8.15673e-44
      1.57604  6.99064e-43
      1.63829    4.648e-42
      1.70054  2.64677e-41
       1.7628  1.34337e-40
      1.82505  6.20851e-40
       1.8873  2.54919e-39
      1.94956  9.89565e-39
      2.01181  3.68518e-38
      2.07407  1.34794e-37
      2.13632  4.98823e-37
      2.19857    1.923e-36
      2.26083  7.83568e-36
      2.32308  3.33746e-35
      2.38534  1.44176e-34
      2.44759  6.11503e-34
      2.50984  2.47995e-33
       2.5721  9.43322e-33
      2.63435  3.30687e-32
      2.69661  1.04283e-31
      2.75886  2.81786e-31
      2.82111  5.63644e-31
      2.88337  1.90948e-31
      2.94562 -5.87461e-30
      3.00787 -4.16631e-29
      3.07013 -2.04804e-28
      3.13238 -8.49269e-28
      3.19464  -3.1463e-27
      3.25689 -1.06474e-26
      3.31914 -3.28992e-26
       3.3814 -9.26747e-26
      3.44365 -2.33325e-25
      3.50591 -4.96495e-25
      3.56816 -7.20944e-25
      3.63041  4.20321e-25
      3.69267  9.21141e-24
      3.75492  5.01634e-23
      3.81718  2.09469e-22
      3.87943  7.68471e-22
      3.94168  2.62243e-21
      4.00394  8.38966e-21
      4.06619  2.55367e-20
      4.12845  7.46624e-20
       4.1907  2.10985e-19
      4.25295  5.78032e-19
      4.31521   1.5414e-18
      4.37746  4.01226e-18
      4.43971  1.02047e-17
      4.50197  2.54031e-17
      4.56422  6.19221e-17
      4.62648  1.47866e-16
      4.68873  3.45981e-16
      4.75098  7.93417e-16
      4.81324  1.78638e-15
      4.87549  3.94944e-15
      4.93775   8.5902e-15
            5  1.83813e-14
       5.0625  3.88856e-14
        5.125  8.10356e-14
       5.1875  1.66344e-13
         5.25   3.3645e-13
       5.3125  6.70881e-13
        5.375  1.31927e-12
       5.4375  2.55891e-12
          5.5  4.89617e-12
       5.5625  9.24601e-12
        5.625  1.72425e-11
       5.6875  3.17388e-11
         5.75  5.76987e-11
       5.8125  1.03641e-10
        5.875  1.83935e-10
       5.9375  3.22649e-10
            6  5.59381e-10
       6.0625  9.58799e-10
        6.125  1.62452e-09
       6.1875  2.72271e-09
         6.25  4.51379e-09
       6.3125  7.40451e-09
        6.375  1.20179e-08
       6.4375  1.93022e-08
          6.5  3.06878e-08
       6.5625  4.82922e-08
        6.625  7.52308e-08
       6.6875  1.16039e-07
         6.75  1.77256e-07
       6.8125  2.68254e-07
        6.875  4.02058e-07
       6.9375  5.96904e-07
            7  8.77969e-07
       7.0625  1.27965e-06
        7.125  1.84826e-06
       7.1875  2.64522e-06
         7.25  3.75263e-06
       7.3125  5.27682e-06
        7.375  7.35803e-06
       7.4375  1.01712e-05
          7.5  1.39382e-05
       7.5625  1.89416e-05
        7.625  2.55302e-05
       7.6875  3.41333e-05
         7.75  4.52656e-05
       7.8125   5.9548e-05
        7.875   7.7699e-05
       7.9375  0.000100589
            8  0.000129242
       8.0625  0.000164756
        8.125  0.000208449
       8.1875  0.000261757
         8.25  0.000326329
       8.3125  0.000403844
        8.375  0.000496174
       8.4375  0.000605304
          8.5  0.000733183
       8.5625   0.00088176
        8.625   0.00105337
       8.6875   0.00124982
         8.75   0.00147327
       8.8125   0.00172508
        8.875   0.00200718
       8.9375   0.00232009
            9   0.00266534
       9.0625   0.00304253
        9.125   0.00345199
       9.1875   0.00389285
         9.25   0.00436556
       9.3125   0.00486683
        9.375    0.0053946
       9.4375   0.00594716
          9.5   0.00651957
       9.5625   0.00710781
        9.625   0.00770862
       9.6875    0.0083179
         9.75   0.00893148
       9.8125   0.00954513
        9.875     0.010152
       9.9375    0.0107459
           10    0.0113232
      10.0625    0.0118817
       10.125    0.0124129
      10.1875    0.0129173
        10.25    0.0133891
      10.3125    0.0138256
       10.375    0.0142231
      10.4375    0.0145789
         10.5    0.0148947
      10.5625    0.0151675
       10.625    0.0153977
      10.6875    0.0155884
        10.75    0.0157348
      10.8125    0.0158458
       10.875    0.0159192
      10.9375    0.0159554
           11    0.0159581
      11.0625    0.0159305
       11.125    0.0158737
      11.1875    0.0157972
        11.25    0.0157009
      11.3125    0.0155867
       11.375    0.0154592
      11.4375    0.0153174
         11.5    0.0151701
      11.5625    0.0150158
       11.625     0.014854
      11.6875    0.0146899
        11.75    0.0145216
      11.8125    0.0143524
       11.875    0.0141861
      11.9375    0.0140196
           12    0.0138555
      12.0625    0.0136958
       12.125    0.0135409
      12.1875    0.0133901
        12.25    0.0132443
      12.3125     0.013103
       12.375    0.0129639
      12.4375    0.0128302
         12.5    0.0127008
      12.5625    0.0125766
       12.625    0.0124553
      12.6875    0.0123343
        12.75    0.0122138
      12.8125    0.0120945
       12.875    0.0119768
      12.9375    0.0118576
           13    0.0117374
      13.0625    0.0116161
       13.125    0.0114958
      13.1875     0.011373
        13.25    0.0112481
      13.3125    0.0111231
       13.375    0.0109982
      13.4375    0.0108731
         13.5    0.0107466
      13.5625    0.0106209
       13.625     0.010495
      13.6875    0.0103684
        13.75    0.0102431
      13.8125    0.0101195
       13.875    0.0099952
      13.9375   0.00987043
           14   0.00974632
      14.0625   0.00962518
       14.125   0.00950342
      14.1875   0.00938228
        14.25   0.00926146
      14.3125   0.00914037
       14.375   0.00901941
      14.4375   0.00889915
         14.5   0.00877882
      14.5625     0.008658
       14.625    0.0085395
      14.6875   0.00842111
        14.75   0.00830563
      14.8125   0.00819249
       14.875   0.00807998
      14.9375   0.00796908
           15   0.00786112
      15.0625     0.007755
       15.125   0.00765186
      15.1875   0.00755158
        15.25   0.00745419
      15.3125   0.00735847
       15.375   0.00726705
      15.4375   0.00717766
         15.5   0.00709068
      15.5625   0.00700699
       15.625   0.00692677
      15.6875   0.00684986
        15.75   0.00677471
      15.8125   0.00670292
       15.875   0.00663422
      15.9375   0.00656663
           16   0.00650285
      16.0625   0.00644035
       16.125   0.00638033
      16.1875   0.00632081
        16.25   0.00626413
      16.3125   0.00620913
       16.375   0.00615491
      16.4375   0.00610196
         16.5   0.00605159
      16.5625   0.00600267
       16.625   0.00595401
      16.6875   0.00590707
        16.75    0.0058617
      16.8125   0.00581657
       16.875   0.00577184
      16.9375   0.00572874
           17   0.00568558
      17.0625   0.00564368
       17.125   0.00560168
      17.1875   0.00556055
        17.25    0.0055211
      17.3125   0.00548146
       17.375   0.00544191
      17.4375   0.00540297
         17.5   0.00536481
      17.5625   0.00532695
       17.625   0.00528989
      17.6875   0.00525382
        17.75   0.00521816
      17.8125   0.00518287
       17.875   0.00514772
      17.9375    0.0051131
           18   0.00507814
      18.0625   0.00504364
       18.125   0.00500916
      18.1875   0.00497479
        18.25   0.00494075
      18.3125   0.00490649
       18.375   0.00487319
      18.4375   0.00483897
         18.5   0.00480466
      18.5625   0.00477116
       18.625   0.00473749
      18.6875   0.00470404
        18.75    0.0046698
      18.8125   0.00463635
       18.875   0.00460268
      18.9375   0.00456838
           19   0.00453381
      19.0625   0.00449905
       19.125    0.0044647
      19.1875   0.00442998
        19.25   0.00439528
      19.3125   0.00436109
       19.375   0.00432689
      19.4375   0.00429319
         19.5     0.004259
      19.5625   0.00422475
       19.625   0.00419167
      19.6875   0.00415885
        19.75    0.0041256
      19.8125   0.00409281
       19.875    0.0040603
      19.9375     0.004027
           20   0.00399363
      20.0625   0.00396051
       20.125   0.00392822
      20.1875   0.00389559
        20.25   0.00386292
      20.3125   0.00383071
       20.375   0.00379806
      20.4375   0.00376609
         20.5   0.00373363
      20.5625   0.00370169
       20.625   0.00366946
      20.6875   0.00363782
        20.75   0.00360632
      20.8125   0.00357431
       20.875     0.003543
      20.9375   0.00351155
           21   0.00348004
      21.0625    0.0034492
       21.125   0.00341846
      21.1875   0.00338804
        21.25   0.00335751
      21.3125   0.00332729
       21.375   0.00329796
      21.4375   0.00326827
         21.5   0.00323961
      21.5625   0.00321151
       21.625   0.00318405
      21.6875   0.00315682
        21.75   0.00313002
      21.8125   0.00310398
       21.875   0.00307802
      21.9375   0.00305296
           22   0.00302839
      22.0625   0.00300428
       22.125   0.00298078
      22.1875    0.0029576
        22.25   0.00293503
      22.3125   0.00291354
       22.375    0.0028922
      22.4375   0.00287161
         22.5   0.00285158
      22.5625   0.00283224
       22.625   0.00281309
      22.6875   0.00279474
        22.75   0.00277704
      22.8125   0.00275966
       22.875   0.00274317
      22.9375   0.00272682
           23    0.0027113
      23.0625   0.00269607
       23.125   0.00268116
      23.1875   0.00266716
        23.25   0.00265316
      23.3125    0.0026397
       23.375    0.0026267
      23.4375    0.0026145
         23.5   0.00260255
      23.5625   0.00259138
       23.625    0.0025804
      23.6875   0.00257017
        23.75   0.00256009
      23.8125   0.00255029
       23.875   0.00254084
      23.9375   0.00253174
           24   0.00252254
      24.0625   0.00251386
       24.125   0.00250551
      24.1875   0.00249706
        24.25    0.0024888
      24.3125   0.00248114
       24.375   0.00247345
      24.4375   0.00246613
         24.5   0.00245869
      24.5625   0.00245157
       24.625   0.00244461
      24.6875   0.00243739
        24.75   0.00243033
      24.8125   0.00242387
       24.875   0.00241717
      24.9375   0.00241076
           25   0.00240412
      25.0625   0.00239765
       25.125   0.00239143
      25.1875   0.00238531
        25.25   0.00237878
      25.3125   0.00237206
       25.375   0.00236579
      25.4375   0.00235946
         25.5   0.00235318
      25.5625    0.0023468
       25.625   0.00234061
      25.6875   0.00233419
        25.75   0.00232752
      25.8125   0.00232119
       25.875   0.00231473
      25.9375   0.00230813
           26   0.00230144
      26.0625   0.00229472
       26.125   0.00228792
      26.1875   0.00228112
        26.25   0.00227425
      26.3125    0.0022674
       26.375   0.00226058
      26.4375    0.0022536
         26.5   0.00224621
      26.5625    0.0022386
       26.625   0.00223112
      26.6875   0.00222359
        26.75    0.0022158
      26.8125   0.00220808
       26.875   0.00220021
      26.9375   0.00219209
           27   0.00218386
      27.0625   0.00217586
       27.125   0.00216756
      27.1875   0.00215927
        27.25   0.00215087
      27.3125   0.00214235
       27.375   0.00213362
      27.4375    0.0021248
         27.5   0.00211605
      27.5625   0.00210715
       27.625   0.00209785
      27.6875   0.00208865
        27.75   0.00207933
      27.8125   0.00207004
       27.875   0.00206047
      27.9375   0.00205072
           28   0.00204085
      28.0625   0.00203119
       28.125   0.00202128
      28.1875   0.00201113
        28.25   0.00200086
      28.3125   0.00199089
       28.375   0.00198064
      28.4375   0.00197025
         28.5   0.00195985
      28.5625   0.00194946
       28.625   0.00193894
      28.6875   0.00192826
        28.75   0.00191747
      28.8125   0.00190664
       28.875   0.00189563
      28.9375   0.00188459
           29   0.00187371
      29.0625   0.00186289
       29.125     0.001852
      29.1875   0.00184082
        29.25   0.00182934
      29.3125   0.00181798
       29.375   0.00180649
      29.4375   0.00179504
         29.5   0.00178362
      29.5625   0.00177235
       29.625   0.00176085
      29.6875   0.00174956
        29.75   0.00173828
      29.8125   0.00172708
       29.875    0.0017157
      29.9375   0.00170445
           30   0.00169311
      30.0625   0.00168183
       30.125   0.00167051
      30.1875   0.00165924
        30.25   0.00164774
      30.3125   0.00163631
       30.375   0.00162505
      30.4375   0.00161381
         30.5   0.00160239
      30.5625   0.00159126
       30.625   0.00158003
      30.6875   0.00156894
        30.75   0.00155788
      30.8125   0.00154669
       30.875   0.00153558
      30.9375   0.00152453
           31    0.0015135
      31.0625   0.00150244
       31.125    0.0014914
      31.1875   0.00148048
        31.25   0.00146978
      31.3125   0.00145897
       31.375   0.00144833
      31.4375   0.00143759
         31.5   0.00142711
      31.5625   0.00141663
       31.625   0.00140612
      31.6875    0.0013957
        31.75   0.00138513
      31.8125   0.00137485
       31.875   0.00136471
      31.9375   0.00135449
           32   0.00134434
      32.0625   0.00133435
       32.125   0.00132423
      32.1875   0.00131441
        32.25   0.00130446
      32.3125   0.00129478
       32.375   0.00128508
      32.4375   0.00127549
         32.5   0.00126586
      32.5625   0.00125631
       32.625   0.00124677
      32.6875   0.00123749
        32.75   0.00122808
      32.8125   0.00121879
       32.875   0.00120962
      32.9375   0.00120049
           33   0.00119129
      33.0625   0.00118233
       33.125    0.0011733
      33.1875   0.00116432
        33.25   0.00115538
      33.3125   0.00114664
       33.375   0.00113788
      33.4375    0.0011291
         33.5   0.00112031
      33.5625   0.00111175
       33.625   0.00110318
      33.6875   0.00109471
        33.75   0.00108625
      33.8125   0.00107774
       33.875   0.00106919
      33.9375    0.0010608
           34   0.00105253
      34.0625   0.00104422
       34.125     0.001036
      34.1875   0.00102795
        34.25    0.0010198
      34.3125   0.00101174
       34.375   0.00100369
      34.4375  0.000995641
         34.5  0.000987746
      34.5625  0.000979806
       34.625  0.000971805
      34.6875  0.000963849
        34.75  0.000956048
      34.8125  0.000948278
       34.875  0.000940471
      34.9375  0.000932688
           35  0.000925164
      35.0625  0.000917765
       35.125  0.000910257
      35.1875  0.000902864
        35.25  0.000895452
      35.3125  0.000888014
       35.375   0.00088055
      35.4375  0.000873175
         35.5  0.000865798
      35.5625  0.000858591
       35.625  0.000851433
      35.6875  0.000844218
        35.75  0.000837002
      35.8125  0.000829843
       35.875  0.000822746
      35.9375  0.000815744
           36  0.000808763
      36.0625    0.0008018
       36.125  0.000794955
      36.1875  0.000788134
        36.25  0.000781388
      36.3125  0.000774828
       36.375  0.000768249
      36.4375  0.000761841
         36.5  0.000755423
      36.5625   0.00074896
       36.625  0.000742568
      36.6875  0.000736311
        36.75  0.000730089
      36.8125  0.000723847
       36.875  0.000717659
      36.9375  0.000711508
           37  0.000705487
      37.0625  0.000699393
       37.125  0.000693369
      37.1875  0.000687464
        37.25    0.0006816
      37.3125   0.00067583
       37.375  0.000669969
      37.4375  0.000664176
         37.5  0.000658321
      37.5625  0.000652508
       37.625  0.000646779
      37.6875  0.000641085
        37.75  0.000635379
      37.8125  0.000629775
       37.875  0.000624142
      37.9375  0.000618615
           38  0.000613158
      38.0625  0.000607762
       38.125  0.000602322
      38.1875   0.00059695
        38.25  0.000591632
      38.3125  0.000586369
       38.375  0.000581111
      38.4375  0.000575894
         38.5  0.000570741
      38.5625  0.000565652
       38.625   0.00056054
      38.6875  0.000555475
        38.75  0.000550433
      38.8125  0.000545428
       38.875  0.000540451
      38.9375  0.000535579
           39  0.000530692
      39.0625  0.000525802
       39.125  0.000520936
      39.1875  0.000516059
        39.25  0.000511174
      39.3125  0.000506406
       39.375   0.00050169
      39.4375  0.000496938
         39.5  0.000492316
      39.5625  0.000487737
       39.625  0.000483152
      39.6875  0.000478597
        39.75  0.000474063
      39.8125  0.000469612
       39.875   0.00046522
      39.9375  0.000460905
           40  0.000456623
      40.0625  0.000452369
       40.125  0.000448124
      40.1875  0.000443993
        40.25  0.000439943
      40.3125  0.000435858
       40.375  0.000431778
      40.4375  0.000427719
         40.5  0.000423743
      40.5625  0.000419799
       40.625  0.000415857
      40.6875  0.000411929
        40.75  0.000408047
      40.8125   0.00040421
       40.875  0.000400344
      40.9375  0.000396577
           41  0.000392795
      41.0625  0.000389087
       41.125  0.000385384
      41.1875  0.000381702
        41.25  0.000378082
      41.3125  0.000374488
       41.375  0.000370893
      41.4375  0.000367346
         41.5  0.000363836
      41.5625  0.000360314
       41.625  0.000356822
      41.6875  0.000353373
        41.75  0.000349932
      41.8125   0.00034654
       41.875  0.000343175
      41.9375  0.000339858
           42  0.000336531
      42.0625  0.000333246
       42.125  0.000329987
      42.1875  0.000326693
        42.25  0.000323392
      42.3125  0.000320157
       42.375  0.000316923
      42.4375  0.000313741
         42.5  0.000310594
      42.5625  0.000307454
       42.625  0.000304344
      42.6875  0.000301255
        42.75  0.000298234
      42.8125  0.000295241
       42.875  0.000292247
      42.9375  0.000289312
           43   0.00028646
      43.0625  0.000283635
       43.125  0.000280839
      43.1875  0.000278072
        43.25  0.000275305
      43.3125  0.000272577
       43.375  0.000269858
      43.4375  0.000267207
         43.5   0.00026457
      43.5625  0.000262006
       43.625  0.000259485
      43.6875   0.00025697
        43.75  0.000254502
      43.8125  0.000252037
       43.875  0.000249625
      43.9375  0.000247184
           44  0.000244816
      44.0625  0.000242473
       44.125  0.000240164
      44.1875   0.00023787
        44.25  0.000235592
      44.3125  0.000233331
       44.375  0.000231134
      44.4375  0.000228936
         44.5  0.000226777
      44.5625  0.000224594
       44.625  0.000222464
      44.6875  0.000220349
        44.75  0.000218283
      44.8125    0.0002162
       44.875  0.000214143
      44.9375  0.000212115
           45   0.00021012
      45.0625  0.000208158
       45.125  0.000206189
      45.1875  0.000204279
        45.25  0.000202354
      45.3125  0.000200457
       45.375  0.000198583
      45.4375  0.000196717
         45.5  0.000194864
      45.5625  0.000193034
       45.625  0.000191216
      45.6875  0.000189402
        45.75  0.000187645
      45.8125  0.000185891
       45.875   0.00018418
      45.9375  0.000182479
           46  0.000180808
      46.0625   0.00017913
       46.125  0.000177468
      46.1875  0.000175833
        46.25  0.000174184
      46.3125  0.000172564
       46.375  0.000170982
      46.4375    0.0001694
         46.5  0.000167832
      46.5625  0.000166297
       46.625  0.000164774
      46.6875  0.000163253
        46.75  0.000161784
      46.8125  0.000160296
       46.875  0.000158826
      46.9375  0.000157367
           47  0.000155919
      47.0625  0.000154515
       47.125  0.000153108
      47.1875  0.000151707
        47.25  0.000150306
      47.3125  0.000148939
       47.375  0.000147572
      47.4375  0.000146228
         47.5  0.000144923
      47.5625  0.000143617
       47.625  0.000142337
      47.6875  0.000141059
        47.75  0.000139789
      47.8125  0.000138529
       47.875  0.000137291
      47.9375  0.000136075
           48  0.000134866
      48.0625  0.000133684
       48.125  0.000132507
      48.1875  0.000131327
        48.25  0.000130174
      48.3125  0.000129032
       48.375  0.000127888
      48.4375  0.000126766
         48.5   0.00012564
      48.5625  0.000124534
       48.625  0.000123446
      48.6875  0.000122358
        48.75  0.000121278
      48.8125  0.000120218
       48.875   0.00011917
      48.9375  0.000118128
           49  0.000117102
      49.0625  0.000116093
       49.125  0.000115083
      49.1875  0.000114079
        49.25  0.000113079
      49.3125  0.000112103
       49.375  0.000111135
      49.4375  0.000110169
         49.5  0.000109203
      49.5625  0.000108253
       49.625  0.000107298
      49.6875  0.000106365
        49.75  0.000105441
      49.8125  0.000104524
       49.875  0.000103611
      49.9375  0.000102707
           50  0.000101815
      50.0625   0.00010093
       50.125  0.000100045
      50.1875   9.9183e-05
        50.25  9.83212e-05
      50.3125  9.74658e-05
       50.375  9.66233e-05
      50.4375  9.57847e-05
         50.5    9.495e-05
      50.5625  9.41402e-05
       50.625  9.33323e-05
      50.6875  9.25272e-05
        50.75  9.17119e-05
      50.8125  9.09093e-05
       50.875  9.01166e-05
      50.9375  8.93378e-05
           51  8.85634e-05
      51.0625  8.77892e-05
       51.125  8.70389e-05
      51.1875  8.62959e-05
        51.25   8.5561e-05
      51.3125  8.48146e-05
       51.375  8.40694e-05
      51.4375  8.33367e-05
         51.5  8.25983e-05
      51.5625  8.18768e-05
       51.625  8.11707e-05
      51.6875  8.04645e-05
        51.75  7.97657e-05
      51.8125  7.90728e-05
       51.875  7.83815e-05
      51.9375  7.76937e-05
           52  7.70216e-05
      52.0625  7.63394e-05
       52.125  7.56729e-05
      52.1875  7.50139e-05
        52.25  7.43549e-05
      52.3125   7.3701e-05
       52.375   7.3053e-05
      52.4375  7.24133e-05
         52.5  7.17666e-05
      52.5625  7.11414e-05
       52.625  7.05134e-05
      52.6875   6.9891e-05
        52.75  6.92788e-05
      52.8125  6.86735e-05
       52.875  6.80677e-05
      52.9375   6.7462e-05
           53  6.68665e-05
      53.0625  6.62756e-05
       53.125  6.56871e-05
      53.1875  6.51047e-05
        53.25   6.4524e-05
      53.3125  6.39519e-05
       53.375  6.33834e-05
      53.4375  6.28191e-05
         53.5   6.2261e-05
      53.5625  6.17005e-05
       53.625   6.1143e-05
      53.6875  6.05932e-05
        53.75  6.00481e-05
      53.8125  5.95096e-05
       53.875  5.89729e-05
      53.9375  5.84394e-05
           54   5.7906e-05
      54.0625  5.73882e-05
       54.125  5.68667e-05
      54.1875  5.63505e-05
        54.25   5.5839e-05
      54.3125  5.53332e-05
       54.375  5.48215e-05
      54.4375  5.43128e-05
         54.5  5.38103e-05
      54.5625  5.33125e-05
       54.625  5.28207e-05
      54.6875  5.23337e-05
        54.75   5.1853e-05
      54.8125  5.13698e-05
       54.875  5.08935e-05
      54.9375  5.04172e-05
           55  4.99507e-05
      55.0625  4.94913e-05
       55.125  4.90318e-05
      55.1875  4.85758e-05
        55.25  4.81287e-05
      55.3125  4.76793e-05
       55.375  4.72316e-05
      55.4375  4.67872e-05
         55.5  4.63438e-05
      55.5625  4.59028e-05
       55.625  4.54678e-05
      55.6875  4.50359e-05
        55.75  4.46099e-05
      55.8125  4.41864e-05
       55.875  4.37668e-05
      55.9375  4.33547e-05
           56  4.29386e-05
      56.0625  4.25254e-05
       56.125  4.21169e-05
      56.1875  4.17105e-05
        56.25  4.13087e-05
      56.3125   4.0909e-05
       56.375  4.05121e-05
      56.4375  4.01219e-05
         56.5   3.9737e-05
      56.5625  3.93523e-05
       56.625  3.89695e-05
      56.6875  3.85902e-05
        56.75  3.82151e-05
      56.8125  3.78411e-05
       56.875  3.74712e-05
      56.9375   3.7103e-05
           57  3.67345e-05
      57.0625  3.63682e-05
       57.125  3.60081e-05
      57.1875  3.56525e-05
        57.25  3.52981e-05
      57.3125  3.49498e-05
       57.375  3.46013e-05
      57.4375  3.42542e-05
         57.5  3.39116e-05
      57.5625  3.35707e-05
       57.625  3.32331e-05
      57.6875  3.29009e-05
        57.75  3.25688e-05
      57.8125  3.22419e-05
       57.875  3.19146e-05
      57.9375  3.15928e-05
           58  3.12704e-05
      58.0625  3.09542e-05
       58.125  3.06369e-05
      58.1875  3.03245e-05
        58.25    3.001e-05
      58.3125  2.97049e-05
       58.375  2.94021e-05
      58.4375  2.90952e-05
         58.5  2.87927e-05
      58.5625  2.84949e-05
       58.625  2.81975e-05
      58.6875  2.79044e-05
        58.75  2.76134e-05
      58.8125  2.73293e-05
       58.875  2.70474e-05
      58.9375  2.67651e-05
           59   2.6485e-05
      59.0625  2.62066e-05
       59.125  2.59345e-05
      59.1875   2.5661e-05
        59.25  2.53872e-05
      59.3125  2.51165e-05
       59.375   2.4846e-05
      59.4375  2.45791e-05
         59.5  2.43149e-05
      59.5625  2.40551e-05
       59.625  2.37994e-05
      59.6875  2.35445e-05
        59.75   2.3292e-05
      59.8125  2.30439e-05
       59.875   2.2795e-05
      59.9375  2.25501e-05
           60  2.23046e-05
      60.0625  2.20626e-05
       60.125  2.18221e-05
      60.1875  2.15852e-05
        60.25  2.13489e-05
      60.3125   2.1114e-05
       60.375  2.08811e-05
      60.4375  2.06517e-05
         60.5  2.04229e-05
      60.5625  2.01977e-05
       60.625  1.99752e-05
      60.6875   1.9755e-05
        60.75  1.95331e-05
      60.8125  1.93137e-05
       60.875  1.90951e-05
      60.9375  1.88815e-05
           61  1.86684e-05
      61.0625  1.84575e-05
       61.125  1.82488e-05
      61.1875  1.80399e-05
        61.25  1.78356e-05
      61.3125  1.76325e-05
       61.375   1.7431e-05
      61.4375  1.72298e-05
         61.5  1.70329e-05
      61.5625  1.68367e-05
       61.625  1.66405e-05
      61.6875  1.64487e-05
        61.75  1.62558e-05
      61.8125  1.60679e-05
       61.875  1.58796e-05
      61.9375  1.56915e-05
           62  1.55047e-05
      62.0625  1.53222e-05
       62.125  1.51426e-05
      62.1875  1.49619e-05
        62.25   1.4785e-05
      62.3125  1.46098e-05
       62.375  1.44368e-05
      62.4375  1.42632e-05
         62.5  1.40911e-05
      62.5625   1.3921e-05
       62.625  1.37532e-05
      62.6875  1.35848e-05
        62.75  1.34194e-05
      62.8125  1.32557e-05
       62.875  1.30919e-05
      62.9375  1.29305e-05
           63  1.27727e-05
      63.0625  1.26148e-05
       63.125  1.24589e-05
      63.1875  1.23041e-05
        63.25  1.21515e-05
      63.3125  1.20007e-05
       63.375  1.18498e-05
      63.4375  1.17009e-05
         63.5  1.15536e-05
      63.5625  1.14086e-05
       63.625  1.12651e-05
      63.6875  1.11211e-05
        63.75  1.09805e-05
      63.8125   1.0839e-05
       63.875  1.07014e-05
      63.9375   1.0565e-05
           64  1.04299e-05
      64.0625  1.02952e-05
       64.125  1.01616e-05
      64.1875  1.00297e-05
        64.25  9.89924e-06
      64.3125  9.76949e-06
       64.375  9.64209e-06
      64.4375   9.5155e-06
         64.5  9.38987e-06
      64.5625  9.26513e-06
       64.625  9.14145e-06
      64.6875  9.01935e-06
        64.75  8.89886e-06
      64.8125  8.78045e-06
       64.875  8.66274e-06
      64.9375  8.54541e-06
           65  8.43059e-06
      65.0625  8.31542e-06
       65.125  8.20247e-06
      65.1875  8.09098e-06
        65.25  7.98009e-06
      65.3125   7.8694e-06
       65.375  7.75997e-06
      65.4375  7.65206e-06
         65.5  7.54518e-06
      65.5625  7.43912e-06
       65.625  7.33442e-06
      65.6875  7.23024e-06
        65.75  7.12776e-06
      65.8125   7.0258e-06
       65.875   6.9251e-06
      65.9375  6.82486e-06